ITEM: TIMESTEP
90001
ITEM: NUMBER OF ATOMS
1058
ITEM: BOX BOUNDS xx yy zz
-11.89302	 11.89302	
-11.89302	 11.89302	
-1.10000	 1.10000	
ITEM: ATOMS x y z
-0.73556	 0.22010	-0.34312	
 0.22686	 0.09659	-0.32633	
 1.23949	 0.05107	-0.35538	
 2.25222	 0.20619	-0.33403	
 3.28319	 0.18868	-0.32307	
 4.31105	 0.21334	-0.34090	
 5.35688	 0.25067	-0.34819	
 6.43004	 0.20906	-0.33938	
 7.36478	 0.15814	-0.30751	
 8.49083	 0.19316	-0.34456	
 9.54995	 0.20724	-0.36731	
 10.55012	 0.20896	-0.32154	
 11.55309	 0.12125	-0.34669	
-11.21813	 0.22487	-0.30161	
-10.20586	 0.08340	-0.34611	
-9.10080	 0.11761	-0.35605	
-8.08424	 0.24337	-0.34835	
-7.04710	 0.23465	-0.35602	
-5.99422	 0.22793	-0.34969	
-4.98604	 0.19244	-0.34814	
-3.94920	 0.15378	-0.35390	
-2.80872	 0.25398	-0.34729	
-1.78910	 0.16726	-0.32362	
-0.06783	 1.21773	-0.34984	
 0.98824	 1.28923	-0.35493	
 1.98203	 1.39641	-0.35834	
 3.01678	 1.35527	-0.32905	
 4.05545	 1.29263	-0.34442	
 5.06362	 1.41672	-0.36254	
 6.10840	 1.24139	-0.36621	
 7.09317	 1.21096	-0.33861	
 8.07571	 1.24992	-0.35583	
 9.03764	 1.33415	-0.33922	
 10.13209	 1.23291	-0.36526	
 11.12888	 1.17435	-0.32472	
-11.62783	 1.26287	-0.37085	
-10.58008	 1.24368	-0.33978	
-9.55838	 1.09134	-0.34108	
-8.47147	 1.30200	-0.33479	
-7.47870	 1.23277	-0.35547	
-6.47561	 1.22626	-0.32959	
-5.41154	 1.24903	-0.33239	
-4.39239	 1.22887	-0.32582	
-3.27015	 1.27618	-0.32311	
-2.21249	 1.26440	-0.34078	
-1.18841	 1.28937	-0.35096	
 0.38106	 2.33640	-0.33401	
 1.42592	 2.46362	-0.30323	
 2.42497	 2.40204	-0.35184	
 3.41970	 2.37092	-0.33474	
 4.41572	 2.36620	-0.35117	
 5.44998	 2.37055	-0.31971	
 6.46134	 2.27204	-0.33239	
 7.49751	 2.27417	-0.30726	
 8.48968	 2.24189	-0.36318	
 9.57617	 2.31151	-0.33447	
 10.56725	 2.18279	-0.33693	
 11.60347	 2.23016	-0.34899	
-11.12697	 2.34165	-0.33171	
-10.08821	 2.27376	-0.32755	
-9.08422	 2.29707	-0.32284	
-7.97531	 2.32405	-0.34788	
-7.00622	 2.36249	-0.36479	
-6.05109	 2.19461	-0.34919	
-4.99748	 2.31752	-0.32512	
-3.99518	 2.21063	-0.35570	
-2.82149	 2.34866	-0.35248	
-1.76699	 2.37149	-0.36036	
-0.63403	 2.25820	-0.34890	
 1.88802	 3.45550	-0.33784	
 2.95386	 3.38910	-0.30710	
 3.96382	 3.37856	-0.34364	
 4.98476	 3.39267	-0.35657	
 6.02226	 3.34598	-0.35672	
 6.98143	 3.36684	-0.34092	
 7.94902	 3.32770	-0.31238	
 8.94138	 3.25307	-0.34261	
 9.96472	 3.26238	-0.35652	
 10.91383	 3.23285	-0.32248	
-11.86378	 3.23698	-0.36835	
-10.86216	 3.26062	-0.31531	
-9.71965	 3.29799	-0.35079	
-8.61472	 3.20738	-0.35774	
-7.54094	 3.33410	-0.33202	
-6.38562	 3.28871	-0.34200	
-5.33944	 3.41517	-0.35291	
-4.34493	 3.28661	-0.33908	
-3.35710	 3.33616	-0.34880	
-2.24917	 3.45137	-0.34977	
-1.20232	 3.26202	-0.32203	
-0.25435	 3.34127	-0.34567	
 0.79548	 3.30032	-0.34716	
 2.36008	 4.39895	-0.32306	
 3.37128	 4.36456	-0.34806	
 4.50446	 4.33816	-0.35225	
 5.52931	 4.35768	-0.34340	
 6.53532	 4.42797	-0.34191	
 7.48892	 4.43641	-0.34152	
 8.46313	 4.35342	-0.31782	
 9.37479	 4.27446	-0.34207	
 10.27584	 4.24090	-0.29540	
 11.19410	 4.39547	-0.35546	
-11.70624	 4.36998	-0.34913	
-10.77563	 4.40333	-0.35463	
-8.87776	 4.28461	-0.31869	
-7.88677	 4.33611	-0.34482	
-6.87610	 4.39832	-0.33123	
-5.87994	 4.45407	-0.32721	
-4.78849	 4.37034	-0.32746	
-3.76209	 4.33128	-0.34075	
-2.76414	 4.43629	-0.32397	
-1.74721	 4.37629	-0.34651	
-0.83386	 4.30103	-0.36017	
 0.30518	 4.34160	-0.32484	
 1.33786	 4.41822	-0.34973	
 1.79762	 5.46084	-0.34043	
 2.85207	 5.41734	-0.32313	
 3.87778	 5.29339	-0.32870	
 4.84959	 5.32513	-0.32844	
 5.83826	 5.36617	-0.35225	
 6.89151	 5.44498	-0.31306	
 7.95797	 5.44374	-0.36055	
 8.90836	 5.35811	-0.36509	
 9.88583	 5.25642	-0.33746	
 10.97590	 5.39392	-0.35905	
-11.65724	 5.35248	-0.33512	
-9.83381	 4.39753	-0.35351	
-9.62913	 5.39356	-0.33891	
-8.64284	 5.30656	-0.32769	
-7.60362	 5.38003	-0.34398	
-6.59722	 5.40230	-0.33154	
-5.60307	 5.49502	-0.31473	
-4.46533	 5.43026	-0.34497	
-3.39559	 5.40056	-0.31036	
-2.34628	 5.37260	-0.34013	
-1.36433	 5.34696	-0.33870	
-0.43510	 5.34606	-0.34863	
 0.67984	 5.38519	-0.36383	
 0.13735	 6.36131	-0.35232	
 1.14315	 6.43584	-0.35133	
 2.22838	 6.44410	-0.33407	
 3.26760	 6.37494	-0.37285	
 4.26395	 6.35978	-0.36402	
 5.22895	 6.28410	-0.34727	
 6.32936	 6.36070	-0.34138	
 7.38130	 6.44332	-0.34238	
 9.39777	 6.34122	-0.35132	
 10.44973	 6.33544	-0.34083	
 11.46540	 6.42575	-0.30306	
-11.20520	 6.51425	-0.35227	
-10.66373	 5.44462	-0.35844	
-10.08666	 6.42976	-0.33320	
-9.06107	 6.38386	-0.31779	
-8.01952	 6.37299	-0.35549	
-6.99671	 6.40329	-0.34134	
-5.95741	 6.50730	-0.34778	
-4.91206	 6.55030	-0.34121	
-3.88830	 6.47243	-0.29787	
-2.88322	 6.38502	-0.36503	
-1.87210	 6.38048	-0.35863	
-0.92199	 6.25214	-0.35546	
-0.36719	 7.42265	-0.33006	
 0.62252	 7.43384	-0.31075	
 1.63440	 7.45806	-0.36764	
 2.84536	 7.33669	-0.36495	
 3.88277	 7.36138	-0.32815	
 4.92241	 7.46804	-0.31902	
 5.89008	 7.43390	-0.33744	
 6.89202	 7.33795	-0.34517	
 7.92860	 7.42365	-0.37297	
 8.93582	 7.36818	-0.32535	
 10.05601	 7.32066	-0.35601	
 11.15205	 7.28839	-0.27551	
-11.60242	 7.45670	-0.34763	
-10.57882	 7.47980	-0.35614	
-9.53902	 7.44986	-0.32591	
-8.51898	 7.36421	-0.35510	
-7.55695	 7.37378	-0.35344	
-6.51488	 7.46286	-0.33967	
-5.43611	 7.48621	-0.35090	
-4.37682	 7.57038	-0.30957	
-3.37867	 7.40637	-0.31080	
-2.42115	 7.33608	-0.33867	
-1.45761	 7.33360	-0.34855	
 0.18281	 8.38446	-0.32607	
 1.18867	 8.46776	-0.33233	
 2.18442	 8.50186	-0.33754	
 3.23773	 8.37343	-0.33075	
 4.20436	 8.42801	-0.32645	
 5.22783	 8.48922	-0.30516	
 6.30481	 8.32812	-0.37325	
 7.31346	 8.44604	-0.33295	
 8.31723	 8.42144	-0.31200	
 9.41245	 8.36236	-0.30483	
 10.41083	 8.31749	-0.34202	
 11.39903	 8.41767	-0.36650	
-11.14023	 8.46483	-0.31332	
-10.03309	 8.48745	-0.32809	
-8.93836	 8.44824	-0.29226	
-7.93776	 8.46294	-0.32389	
-6.98030	 8.46300	-0.32245	
-5.97140	 8.48720	-0.34571	
-4.93054	 8.50883	-0.34090	
-3.89033	 8.55586	-0.32029	
-2.87613	 8.46039	-0.33905	
-1.82413	 8.44671	-0.33448	
-0.83615	 8.44884	-0.32956	
-0.35867	 9.33322	-0.32405	
 0.61053	 9.49570	-0.30748	
 1.54089	 9.50789	-0.33234	
 2.41273	 9.59705	-0.33931	
 3.29970	 9.51815	-0.30103	
 4.25617	 9.54376	-0.32022	
 5.24508	 9.65184	-0.32856	
 6.30950	 9.51779	-0.29099	
 7.33656	 9.57750	-0.33400	
 8.31419	 9.52176	-0.35549	
 9.38974	 9.50582	-0.33399	
 10.47297	 9.41955	-0.34570	
-11.75409	 9.41506	-0.34596	
-10.60389	 9.45114	-0.33894	
-9.54397	 9.46858	-0.34350	
-8.49642	 9.51974	-0.33248	
-7.46647	 9.50694	-0.35513	
-6.48656	 9.46974	-0.36259	
-5.52073	 9.52549	-0.34188	
-4.48043	 9.49177	-0.33691	
-3.34077	 9.62279	-0.35577	
-2.38250	 9.42494	-0.33635	
-1.40347	 9.50629	-0.34538	
-0.86151	 10.52147	-0.33574	
 0.13927	 10.59120	-0.36804	
 1.23280	 10.63532	-0.34583	
 2.22820	 10.60976	-0.34158	
 3.24094	 10.63821	-0.32439	
 4.30424	 10.61737	-0.29699	
 5.30019	 10.66135	-0.29594	
 6.29965	 10.60033	-0.33173	
 7.30957	 10.55230	-0.27702	
 8.35108	 10.58978	-0.30421	
 9.32866	 10.47672	-0.33180	
 10.52042	 10.49239	-0.31900	
 11.55232	 10.56864	-0.31921	
-11.22674	 10.46875	-0.35796	
-10.20764	 10.44006	-0.35014	
-9.21257	 10.46361	-0.35718	
-8.07557	 10.52855	-0.33380	
-7.12151	 10.52663	-0.34846	
-6.01996	 10.57957	-0.35102	
-4.97692	 10.60621	-0.33307	
-3.89354	 10.64715	-0.32973	
-2.93849	 10.66838	-0.34950	
-1.88724	 10.67789	-0.32687	
-0.21838	 11.58182	-0.37126	
 0.85567	 11.63261	-0.35426	
 1.99734	 11.60350	-0.32535	
 3.05118	 11.70845	-0.33680	
 4.13135	 11.62434	-0.36702	
 5.31474	 11.70173	-0.32515	
 6.33862	 11.60892	-0.30872	
 7.32723	 11.61268	-0.34869	
 8.37861	 11.57276	-0.34719	
 9.33297	 11.47275	-0.30776	
 10.28482	 11.46024	-0.33131	
 11.20264	 11.61757	-0.34302	
-11.51209	 11.45373	-0.35469	
-10.54651	 11.59019	-0.35973	
-9.57448	 11.56499	-0.32218	
-8.56149	 11.45002	-0.36952	
-7.41921	 11.58721	-0.36055	
-6.42273	 11.65716	-0.31632	
-5.39846	 11.69730	-0.33890	
-4.42225	 11.60516	-0.34888	
-3.40116	 11.68529	-0.33562	
-2.41642	 11.65551	-0.34620	
-1.26978	 11.63331	-0.33689	
 0.29061	-11.26520	-0.35556	
 1.58767	-11.21142	-0.36275	
 2.61294	-11.09134	-0.32258	
 3.70123	-11.13469	-0.35794	
 4.69458	-11.22320	-0.37786	
 5.68860	-11.15385	-0.33526	
 6.73768	-11.14102	-0.36452	
 7.80523	-11.16014	-0.35080	
 8.76935	-11.25078	-0.36386	
 9.84394	-11.31727	-0.32959	
 10.80154	-11.19660	-0.35378	
 11.76147	-11.30447	-0.32351	
-11.10923	-11.24891	-0.28744	
-10.14481	-11.17623	-0.31828	
-9.17290	-11.17340	-0.35240	
-8.23860	-11.26496	-0.33026	
-7.16923	-11.13329	-0.33616	
-6.16509	-11.09101	-0.34646	
-5.13583	-11.07482	-0.31972	
-4.09068	-11.03663	-0.33767	
-3.12647	-11.01110	-0.32802	
-1.94080	-11.15571	-0.32914	
-0.81143	-11.21373	-0.35889	
 1.28837	-10.05871	-0.31385	
 2.26430	-10.04279	-0.36408	
 3.27575	-10.12079	-0.35431	
 4.33119	-10.08840	-0.32580	
 5.33484	-10.10862	-0.32768	
 6.36461	-10.08848	-0.35375	
 7.40048	-10.14034	-0.34030	
 8.41053	-10.22219	-0.32470	
 9.35887	-10.34384	-0.35172	
 10.44168	-10.18830	-0.35107	
 11.46562	-10.24932	-0.31733	
-11.28985	-10.22781	-0.34188	
-10.28037	-10.19291	-0.31666	
-9.14860	-10.10539	-0.32924	
-8.02498	-10.19906	-0.32166	
-7.04490	-10.08105	-0.32661	
-5.97179	-10.02870	-0.35250	
-4.86595	-10.05994	-0.34202	
-3.80331	-10.01035	-0.33782	
-2.86950	-10.02816	-0.33741	
-1.79583	-10.17983	-0.32524	
-0.76408	-10.09944	-0.33705	
 0.27123	-10.17847	-0.32380	
 0.59607	-9.17388	-0.35014	
 1.52386	-9.01447	-0.33208	
 2.49439	-9.04104	-0.33013	
 3.49840	-9.13643	-0.35291	
 4.65867	-9.15248	-0.34582	
 5.71389	-9.08057	-0.36530	
 6.74112	-9.07649	-0.35595	
 7.66200	-9.22351	-0.30028	
 8.59006	-9.05531	-0.33887	
 9.57140	-9.19771	-0.34306	
 10.61886	-9.09186	-0.34041	
 11.52598	-9.04835	-0.32404	
-11.27585	-9.07823	-0.31149	
-10.09819	-9.08286	-0.34599	
-9.05684	-9.11693	-0.35058	
-7.86210	-9.17011	-0.35456	
-6.67379	-9.03070	-0.34843	
-5.23824	-9.03109	-0.33030	
-4.26866	-9.04787	-0.35956	
-3.26249	-8.96010	-0.35259	
-2.25386	-9.02469	-0.30043	
-1.24088	-9.14922	-0.33681	
-0.33620	-9.09121	-0.34341	
 1.10998	-8.11622	-0.33155	
 2.14944	-7.96140	-0.34103	
 3.21335	-8.04179	-0.35002	
 4.22566	-8.12873	-0.33870	
 5.24181	-8.01408	-0.33642	
 6.25686	-7.95618	-0.33766	
 7.32130	-8.01434	-0.31236	
 8.28209	-7.97100	-0.29187	
 9.31592	-8.11394	-0.32988	
 10.29344	-8.13194	-0.31122	
 11.24167	-8.06260	-0.34586	
-11.55838	-8.03141	-0.33967	
-10.56839	-8.09426	-0.31999	
-9.56479	-7.98124	-0.26844	
-8.60777	-8.10868	-0.31673	
-7.69223	-8.00524	-0.33501	
-6.79957	-7.93141	-0.34310	
-5.88163	-8.09080	-0.31604	
-4.83337	-7.97961	-0.33329	
-2.78475	-8.06702	-0.34631	
-1.87294	-8.12140	-0.31693	
-0.85734	-8.12406	-0.32721	
 0.11113	-8.20644	-0.30748	
 0.04482	-7.01227	-0.33113	
 1.17136	-6.95862	-0.34773	
 2.34846	-6.88600	-0.38794	
 3.35993	-6.98570	-0.34516	
 4.27318	-7.08039	-0.34643	
 5.30448	-6.97449	-0.32389	
 6.36991	-6.96232	-0.31134	
 8.66706	-7.03781	-0.34796	
 9.63672	-7.09603	-0.32587	
 10.69428	-7.06545	-0.32111	
 11.69728	-7.01412	-0.33392	
-11.10144	-7.04182	-0.32048	
-10.16338	-6.94987	-0.34149	
-9.15597	-7.01232	-0.36308	
-8.11561	-7.05116	-0.33471	
-6.92743	-6.90691	-0.33066	
-5.80717	-6.97093	-0.31432	
-4.83571	-6.97055	-0.33019	
-3.78629	-8.04498	-0.35199	
-3.84010	-6.95119	-0.31970	
-2.87641	-7.07075	-0.33215	
-1.87815	-7.06675	-0.36258	
-0.91511	-7.01149	-0.32343	
-0.03379	-5.99577	-0.33166	
 0.94501	-6.05509	-0.33959	
 1.92314	-5.95353	-0.34554	
 3.05003	-6.02523	-0.36314	
 4.18777	-6.07359	-0.35496	
 5.32215	-6.00286	-0.30459	
 6.37130	-5.98294	-0.36686	
 7.44387	-6.97101	-0.33708	
 7.58510	-5.90656	-0.34299	
 8.95008	-6.01504	-0.35259	
 10.18056	-6.05953	-0.35157	
 11.17701	-5.92328	-0.33550	
-11.58429	-5.98390	-0.34549	
-10.59731	-5.93796	-0.32078	
-9.61071	-6.00312	-0.33899	
-8.56992	-5.91890	-0.33099	
-7.47690	-5.88875	-0.36535	
-6.37543	-5.88833	-0.33317	
-5.40659	-5.74185	-0.31176	
-4.29236	-5.92284	-0.36062	
-3.16465	-6.08692	-0.36086	
-2.08731	-6.08927	-0.36793	
-1.13980	-5.99964	-0.31877	
 0.48364	-4.99070	-0.33945	
 1.46237	-4.96123	-0.35976	
 2.42666	-4.93391	-0.33596	
 3.37469	-4.93653	-0.32777	
 4.32692	-5.00928	-0.32227	
 5.25020	-4.91523	-0.34969	
 6.23407	-4.92968	-0.31677	
 7.16614	-4.84392	-0.36769	
 8.37525	-5.05399	-0.34488	
 9.63460	-5.01677	-0.32309	
 10.70818	-5.01705	-0.31705	
 11.71134	-4.94305	-0.33883	
-11.04734	-4.83002	-0.35360	
-10.05070	-4.83732	-0.34692	
-9.02881	-4.90125	-0.32786	
-8.01681	-4.89832	-0.35110	
-6.89359	-4.92543	-0.35198	
-5.85922	-4.83965	-0.35771	
-4.87064	-4.82205	-0.34109	
-3.75585	-4.87577	-0.32845	
-2.69312	-5.04549	-0.34551	
-1.58860	-5.02237	-0.35603	
-0.55178	-4.94202	-0.33342	
-0.30011	-3.78364	-0.30698	
 0.67774	-3.88128	-0.32639	
 1.60948	-3.99191	-0.32755	
 2.54271	-3.99173	-0.34648	
 3.44604	-3.93826	-0.32973	
 4.41418	-3.82148	-0.25836	
 5.47506	-3.98853	-0.29454	
 6.42929	-3.97324	-0.36104	
 7.42951	-3.91776	-0.31367	
 8.38253	-4.00125	-0.31291	
 9.36483	-3.90769	-0.32577	
 10.52998	-3.93378	-0.34813	
 11.66401	-3.89560	-0.34745	
-10.81789	-3.83434	-0.32967	
-9.67922	-3.90250	-0.33709	
-8.59602	-3.94870	-0.33114	
-7.43429	-3.99834	-0.35231	
-6.36724	-3.91846	-0.36805	
-5.37226	-3.89751	-0.35271	
-4.38296	-3.80859	-0.32832	
-3.41448	-3.86582	-0.33872	
-2.32838	-3.96299	-0.34297	
-1.27489	-3.95420	-0.36287	
 0.10861	-2.88711	-0.35336	
 1.06928	-2.94648	-0.37836	
 2.01041	-2.96224	-0.32096	
 2.95393	-2.82288	-0.34778	
 4.85931	-2.85067	-0.34544	
 5.78409	-3.00388	-0.31458	
 6.89988	-2.97543	-0.31603	
 7.81054	-2.73442	-0.33221	
 8.78530	-2.86348	-0.36958	
 9.76287	-2.87267	-0.36088	
 10.72073	-2.86442	-0.35507	
 11.75453	-2.84101	-0.35293	
-10.96236	-2.85306	-0.32992	
-9.93248	-2.94715	-0.33918	
-8.84865	-2.98891	-0.31978	
-7.80244	-2.99984	-0.34416	
-6.80333	-2.95450	-0.34438	
-5.77218	-2.92412	-0.34395	
-4.72739	-2.78068	-0.33592	
-3.70113	-2.83090	-0.31493	
-2.66956	-2.95452	-0.32603	
-1.67512	-2.87417	-0.25799	
-0.76261	-2.84456	-0.31933	
 0.69325	-1.88802	-0.31010	
 1.74281	-1.87887	-0.32602	
 2.86560	-1.76648	-0.34336	
 3.85002	-1.76265	-0.34101	
 4.91278	-1.86023	-0.32693	
 5.94654	-1.80730	-0.34243	
 7.11241	-1.78357	-0.36686	
 8.25982	-1.81250	-0.35716	
 9.30114	-1.84344	-0.34194	
 10.30559	-1.82603	-0.34580	
 11.37790	-1.82857	-0.34373	
-11.35192	-1.87789	-0.34589	
-10.19375	-1.93721	-0.33999	
-9.20188	-1.94319	-0.32682	
-8.19095	-1.93959	-0.33191	
-7.17558	-1.88826	-0.30591	
-6.23751	-1.86699	-0.32447	
-5.25822	-1.84057	-0.33690	
-4.30807	-1.83402	-0.34841	
-3.33039	-1.78347	-0.32603	
-2.35484	-1.78983	-0.31346	
-1.32069	-1.85844	-0.35588	
-0.35418	-1.83137	-0.33611	
-0.36063	-0.85728	-0.33189	
 0.62675	-0.89835	-0.31450	
 1.67656	-0.89277	-0.29665	
 2.65819	-0.79548	-0.31441	
 3.71773	-0.76368	-0.36846	
 4.74259	-0.81219	-0.31555	
 5.76851	-0.81350	-0.33588	
 6.73554	-0.83634	-0.33182	
 7.86794	-0.87076	-0.33894	
 8.84710	-0.87429	-0.31538	
 10.00397	-0.81365	-0.34304	
 11.00866	-0.89400	-0.34674	
-11.72006	-0.77864	-0.33421	
-10.70216	-0.98417	-0.34737	
-9.67138	-0.88688	-0.32887	
-8.66648	-0.89673	-0.33994	
-7.68188	-0.88724	-0.32229	
-6.57538	-0.81359	-0.34834	
-5.50338	-0.77371	-0.31137	
-4.45969	-0.86030	-0.33899	
-3.43401	-0.80914	-0.33577	
-2.35518	-0.82459	-0.33128	
-1.35485	-0.85109	-0.33524	
 1.17936	 0.71084	 0.31703	
 2.24704	 0.80448	 0.32136	
 3.23909	 0.79088	 0.34875	
 4.22793	 0.72866	 0.32794	
 5.26981	 0.86764	 0.33980	
 6.31751	 0.77277	 0.32780	
 7.37215	 0.75538	 0.35524	
 8.32356	 0.79538	 0.36494	
 9.33864	 0.79677	 0.31462	
 10.42672	 0.82074	 0.35534	
 11.48403	 0.74009	 0.34873	
-11.25756	 0.83378	 0.32962	
-10.28461	 0.67345	 0.32809	
-9.14920	 0.72881	 0.33881	
-8.18053	 0.79817	 0.33775	
-7.20997	 0.75025	 0.35819	
-6.19339	 0.74159	 0.34675	
-5.15639	 0.78254	 0.33684	
-4.20365	 0.67535	 0.34168	
-3.13661	 0.70275	 0.35473	
-2.03916	 0.77411	 0.33662	
-1.08603	 0.71491	 0.33716	
 0.04424	 0.67865	 0.35513	
-0.66283	 1.67867	 0.32945	
 0.35380	 1.68374	 0.33945	
 1.40640	 1.73039	 0.33593	
 2.42015	 1.84500	 0.31575	
 3.60417	 1.80220	 0.33272	
 4.61607	 1.79132	 0.34014	
 5.65114	 1.77974	 0.33635	
 6.67398	 1.69712	 0.33393	
 7.74028	 1.71696	 0.33038	
 8.79324	 1.83185	 0.37177	
 9.77920	 1.78109	 0.34547	
 10.80901	 1.68862	 0.34059	
 11.80672	 1.72310	 0.34917	
-10.91274	 1.75423	 0.34186	
-9.82582	 1.71761	 0.30487	
-8.86236	 1.77125	 0.34934	
-7.88627	 1.75587	 0.33738	
-6.87758	 1.75045	 0.31962	
-5.78336	 1.73575	 0.34668	
-4.78846	 1.77624	 0.34119	
-3.70870	 1.75417	 0.32538	
-2.69083	 1.77837	 0.33408	
-1.67008	 1.71781	 0.33402	
-1.22543	 2.63053	 0.32452	
-0.17626	 2.75816	 0.34008	
 0.92143	 2.79296	 0.36534	
 1.96744	 2.82028	 0.33514	
 2.98298	 2.76867	 0.34535	
 4.00194	 2.80376	 0.35844	
 5.13534	 2.84515	 0.36550	
 6.18920	 2.80997	 0.32635	
 7.21475	 2.83027	 0.33072	
 8.20476	 2.76954	 0.33413	
 9.28533	 2.83861	 0.34704	
 10.27333	 2.75203	 0.33157	
 11.22128	 2.67737	 0.33629	
-11.61328	 2.76774	 0.34490	
-10.48074	 2.78260	 0.32084	
-9.47438	 2.77728	 0.33091	
-8.40892	 2.72583	 0.34693	
-7.43023	 2.80596	 0.32935	
-6.41190	 2.67464	 0.30664	
-5.45149	 2.80384	 0.31204	
-4.37106	 2.70571	 0.32167	
-3.32961	 2.73333	 0.32747	
-2.25737	 2.80454	 0.33064	
-1.63966	 3.73762	 0.34224	
-0.58936	 3.83439	 0.35217	
 0.40439	 3.75514	 0.35434	
 1.38449	 3.84777	 0.34509	
 2.44093	 3.82004	 0.31889	
 3.56241	 3.83225	 0.35570	
 4.56888	 3.75871	 0.34657	
 5.58132	 3.77147	 0.36218	
 6.58780	 3.81508	 0.32453	
 7.64763	 3.86538	 0.32995	
 8.67914	 3.82661	 0.33569	
 9.76278	 3.81038	 0.33957	
 11.00247	 3.82660	 0.34163	
-11.79433	 3.79703	 0.36621	
-10.83091	 3.83681	 0.37013	
-9.88079	 3.83608	 0.37253	
-8.96961	 3.69623	 0.31353	
-7.98267	 3.73474	 0.35752	
-6.91985	 3.77420	 0.29494	
-5.86473	 3.86317	 0.34123	
-4.89305	 3.77314	 0.35122	
-3.91674	 3.74218	 0.34466	
-2.88488	 3.79763	 0.30815	
-1.15237	 4.78900	 0.34978	
-0.11399	 4.84298	 0.33067	
 0.89832	 4.91601	 0.35035	
 1.89838	 4.86228	 0.33046	
 2.99348	 4.83893	 0.34344	
 4.01193	 4.68747	 0.35105	
 5.01783	 4.78495	 0.35269	
 6.02439	 4.84033	 0.36975	
 7.08153	 4.93191	 0.35158	
 8.12306	 4.92753	 0.32241	
 9.18876	 4.84868	 0.36724	
 10.36951	 4.90856	 0.34102	
 11.37197	 4.95135	 0.34323	
-11.38802	 4.80910	 0.35196	
-10.40326	 4.88530	 0.31829	
-9.39192	 4.80531	 0.34913	
-8.41402	 4.74724	 0.34543	
-7.40984	 4.82811	 0.35045	
-6.42312	 4.84347	 0.34938	
-5.31703	 4.88608	 0.31879	
-4.33228	 4.85547	 0.34031	
-3.36106	 4.72013	 0.34656	
-2.21279	 4.76170	 0.34581	
-0.59095	 5.88153	 0.36246	
 0.39012	 5.86880	 0.36323	
 1.42472	 5.93513	 0.34121	
 2.39797	 5.87758	 0.35265	
 3.45655	 5.76397	 0.33425	
 4.44181	 5.82252	 0.33953	
 8.36597	 6.40911	-0.32652	
 5.60559	 5.90888	 0.33798	
 6.74602	 6.05642	 0.34821	
 7.71455	 6.00067	 0.35356	
 8.70870	 5.90326	 0.31151	
 10.78851	 5.90975	 0.34199	
 11.78930	 5.89437	 0.33534	
-11.02675	 6.01013	 0.33104	
-10.07619	 5.82347	 0.34667	
-9.03930	 5.79129	 0.35847	
-8.06389	 5.80120	 0.33789	
-7.09094	 5.83544	 0.36770	
-6.04252	 5.96040	 0.33309	
-4.92527	 5.91873	 0.34297	
-3.91524	 5.77852	 0.33628	
-2.81286	 5.79182	 0.33271	
-1.73739	 5.83521	 0.34768	
-0.15918	 6.86695	 0.32610	
 0.88373	 6.94496	 0.36592	
 1.94858	 6.97678	 0.34978	
 3.03777	 6.81447	 0.32129	
 4.09978	 6.88475	 0.35221	
 5.17737	 6.85780	 0.33640	
 6.21381	 6.97983	 0.35842	
 7.34648	 7.08526	 0.34917	
 8.28795	 7.02297	 0.35321	
 9.36010	 6.99186	 0.35070	
 10.37601	 6.93912	 0.34264	
 9.71498	 5.87346	 0.34718	
-11.77524	 6.90934	 0.35023	
-10.57119	 6.91846	 0.33207	
-9.59650	 6.85037	 0.31863	
-8.57959	 6.79531	 0.35498	
-7.60688	 6.81917	 0.32712	
-6.53119	 6.84121	 0.32611	
-5.47549	 6.93429	 0.34593	
-4.39714	 6.92115	 0.34915	
-3.28928	 6.80087	 0.35067	
-2.17297	 6.85861	 0.34708	
-1.13442	 6.84950	 0.33197	
 0.61346	 8.07470	 0.35948	
 1.52275	 8.02353	 0.34229	
 2.49907	 7.89470	 0.33706	
 3.52737	 7.84244	 0.35947	
 4.47822	 7.86721	 0.33514	
 5.58291	 7.96133	 0.34075	
 6.68964	 7.91689	 0.33712	
 7.71827	 8.01577	 0.33800	
 8.78017	 8.00152	 0.35397	
 9.85013	 7.90566	 0.32080	
 10.85720	 7.86502	 0.31991	
 11.82187	 8.03330	 0.32574	
-10.97293	 7.93827	 0.35672	
-9.96924	 7.90418	 0.34240	
-8.99782	 7.75405	 0.32562	
-8.00093	 7.87133	 0.31941	
-7.00430	 7.86004	 0.31234	
-5.93672	 7.87893	 0.31897	
-4.85557	 7.93381	 0.34686	
-3.85475	 7.90021	 0.32037	
-2.71023	 7.91297	 0.32058	
-1.54937	 7.87932	 0.35611	
-0.42493	 8.00377	 0.34051	
 0.10179	 8.98276	 0.33036	
 1.44199	 8.99386	 0.35497	
 2.54685	 8.93475	 0.34649	
 3.55972	 8.91155	 0.32616	
 4.54706	 8.97977	 0.33403	
 5.46849	 9.05724	 0.34955	
 6.49335	 8.88372	 0.32330	
 7.58311	 9.06289	 0.36012	
 8.64238	 9.00136	 0.32372	
 9.58208	 8.94297	 0.34439	
 10.53626	 8.87699	 0.35937	
 11.47702	 9.01714	 0.30243	
-11.29080	 9.06117	 0.34445	
-10.35411	 8.96793	 0.34476	
-9.31330	 8.91156	 0.32597	
-8.35458	 8.96351	 0.32934	
-7.42197	 8.93406	 0.34842	
-6.41506	 8.90032	 0.33835	
-5.43863	 8.94740	 0.33844	
-4.40810	 8.94865	 0.33962	
-3.37959	 8.98055	 0.32112	
-2.34278	 8.82364	 0.35427	
-1.25519	 8.91523	 0.35360	
 1.42571	 10.08937	 0.32559	
 2.51237	 10.10219	 0.35377	
 3.66209	 10.09377	 0.30962	
 4.65567	 10.08203	 0.34912	
 5.70607	 10.12305	 0.32259	
 6.71875	 10.06600	 0.31897	
 7.83014	 10.06458	 0.33151	
 8.80074	 10.01641	 0.33232	
 9.86583	 9.96066	 0.30100	
 10.87750	 9.92370	 0.31289	
 11.82618	 10.00167	 0.32174	
-10.93017	 9.99878	 0.33603	
-9.89527	 9.96576	 0.31992	
-8.90634	 10.01004	 0.33911	
-7.89466	 9.95975	 0.33713	
-6.90445	 9.97435	 0.34307	
-5.87863	 10.03300	 0.31928	
-4.75114	 10.05166	 0.32590	
-3.75723	 10.02504	 0.32606	
-2.74012	 10.06775	 0.25951	
-1.74518	 10.00565	 0.33326	
-0.71526	 9.90680	 0.33903	
 0.22145	 10.06136	 0.33859	
 0.63409	 11.03060	 0.35106	
 1.61530	 11.09000	 0.31767	
 2.57474	 11.17050	 0.30629	
 3.58943	 11.19223	 0.31539	
 4.61675	 11.24503	 0.32010	
 5.69190	 11.20960	 0.31810	
 6.70352	 11.12755	 0.35550	
 7.73001	 11.12961	 0.29681	
 8.75490	 11.08987	 0.32117	
 9.79141	 10.91626	 0.31687	
 10.93081	 10.98753	 0.31299	
-11.67038	 10.91090	 0.32677	
-10.59181	 11.02628	 0.32957	
-9.56353	 10.94290	 0.33388	
-8.43202	 10.95161	 0.36098	
-7.51418	 11.01567	 0.32383	
-6.56237	 10.98842	 0.33372	
-5.57115	 11.04611	 0.31677	
-4.54798	 11.02290	 0.34996	
-3.48179	 11.08723	 0.33808	
-2.50106	 11.03290	 0.33772	
-1.40813	 11.02018	 0.35629	
-0.42716	 11.01868	 0.29839	
 0.09754	-11.76555	 0.35024	
 1.03519	-11.61327	 0.33875	
 2.04654	-11.58729	 0.35346	
 3.04403	-11.47021	 0.35170	
 4.03549	-11.60017	 0.33469	
 5.02613	-11.52012	 0.35611	
 6.03792	-11.59336	 0.35538	
 7.09043	-11.58322	 0.32623	
 8.14432	-11.63965	 0.34642	
 9.17137	-11.62407	 0.34970	
 10.41545	-11.68420	 0.32350	
 11.62783	-11.84228	 0.35853	
-11.20810	-11.85625	 0.34521	
-10.14192	-11.76131	 0.32732	
-9.03034	-11.85336	 0.30982	
-8.04795	 11.89254	 0.32951	
-6.99066	-11.71338	 0.35162	
-5.97075	-11.63066	 0.32053	
-4.92709	-11.66983	 0.32414	
-3.97467	-11.70663	 0.33492	
-2.92778	-11.64418	 0.33833	
-1.91956	-11.78628	 0.33713	
-0.89422	-11.76163	 0.36016	
-1.46510	-10.77976	 0.32335	
-0.50423	-10.68468	 0.33524	
 0.55940	-10.75398	 0.33287	
 1.47709	-10.65755	 0.33326	
 2.53460	-10.46163	 0.34604	
 3.55775	-10.55340	 0.33753	
 4.56085	-10.67341	 0.34868	
 5.59752	-10.60832	 0.34484	
 6.61764	-10.58817	 0.34998	
 7.72491	-10.58247	 0.35106	
 8.78360	-10.66438	 0.33448	
 9.86471	-10.66341	 0.31496	
 10.87893	-10.55623	 0.33241	
-11.86950	-10.73374	 0.32620	
-10.80499	-10.69055	 0.33784	
-9.75494	-10.57066	 0.33093	
-8.77765	-10.67107	 0.30409	
-7.77873	-10.82354	 0.33099	
-6.74527	-10.58218	 0.35218	
-5.72188	-10.63968	 0.31044	
-4.70184	-10.64110	 0.34022	
-3.63786	-10.61704	 0.35051	
-2.57810	-10.65774	 0.34647	
-1.35547	-9.73467	 0.32481	
-0.26044	-9.69567	 0.34560	
 0.71883	-9.71197	 0.37011	
 1.76390	-9.56341	 0.33138	
 2.88810	-9.53180	 0.33680	
 3.97561	-9.53046	 0.31390	
 4.98554	-9.57171	 0.34892	
 6.05873	-9.54177	 0.31372	
 7.02151	-9.60531	 0.34730	
 8.18690	-9.62101	 0.31685	
 9.27180	-9.73197	 0.34285	
 10.35813	-9.58433	 0.35244	
 11.41964	-9.62956	 0.36405	
-11.42137	-9.67630	 0.33907	
-10.49825	-9.59350	 0.32884	
-9.56056	-9.54340	 0.31887	
-8.48320	-9.63120	 0.28989	
-7.43263	-9.56931	 0.32933	
-6.44569	-9.59098	 0.35562	
-5.50006	-9.66638	 0.31930	
-4.52355	-9.57746	 0.34862	
-3.46939	-9.55723	 0.34733	
-2.45928	-9.62492	 0.36113	
-0.54252	-8.60685	 0.36540	
 0.63901	-8.60314	 0.35689	
 1.69166	-8.50724	 0.35923	
 2.67236	-8.39960	 0.29358	
 3.67534	-8.53110	 0.31598	
 4.67801	-8.58985	 0.35025	
 5.64112	-8.50224	 0.32147	
 6.62735	-8.48928	 0.33217	
 7.66608	-8.53008	 0.32743	
 8.75928	-8.48073	 0.35066	
 9.77589	-8.62091	 0.33192	
 10.78077	-8.52318	 0.36082	
 11.78865	-8.50149	 0.34569	
-10.92593	-8.63842	 0.34624	
-9.92547	-8.53094	 0.34270	
-8.76283	-8.65971	 0.35178	
-7.78000	-8.61116	 0.33051	
-6.79537	-8.50092	 0.35847	
-5.87428	-8.73730	 0.31067	
-4.87610	-8.60070	 0.35113	
-3.91614	-8.63099	 0.35483	
-2.83431	-8.62900	 0.35743	
-1.64367	-8.67023	 0.32150	
 0.43672	-7.57497	 0.32341	
 1.34567	-7.54194	 0.33888	
 2.34221	-7.43129	 0.32451	
 3.42160	-7.50370	 0.37950	
 4.49878	-7.58418	 0.34224	
 4.68635	-6.54273	 0.28761	
 5.69596	-7.49026	 0.34294	
 6.81224	-7.47593	 0.33551	
 7.88252	-7.42048	 0.32254	
 8.94740	-7.53169	 0.34692	
 10.09118	-7.45950	 0.33748	
 11.23635	-7.47387	 0.34536	
-11.37821	-7.52398	 0.38289	
-10.25858	-7.53001	 0.33612	
-8.88406	-7.49876	 0.32478	
-7.61228	-7.38124	 0.32269	
-6.49906	-7.43178	 0.31272	
-5.50760	-7.59823	 0.35509	
-4.45855	-7.49901	 0.34238	
-3.43272	-7.57533	 0.32374	
-2.48762	-7.56630	 0.35845	
-1.49445	-7.58357	 0.31031	
-0.52639	-7.55833	 0.32918	
-0.54553	-6.43387	 0.32577	
 0.51319	-6.56150	 0.33215	
 1.58432	-6.50010	 0.32446	
 2.64458	-6.49450	 0.34521	
 3.63658	-6.39704	 0.33030	
 5.74906	-6.46719	 0.33240	
 6.77000	-6.43522	 0.32372	
 7.67591	-6.47056	 0.34507	
 8.59462	-6.49378	 0.33716	
 9.55043	-6.41798	 0.28896	
 10.64150	-6.42407	 0.33899	
 11.59007	-6.44606	 0.36480	
-11.23114	-6.43111	 0.36286	
-10.26291	-6.39333	 0.35404	
-9.25793	-6.46339	 0.34316	
-8.24683	-6.50668	 0.34605	
-7.34749	-6.42187	 0.31741	
-6.36577	-6.48963	 0.34111	
-5.39594	-6.42086	 0.29692	
-4.44696	-6.49693	 0.34719	
-3.52970	-6.47888	 0.35300	
-2.56137	-6.54955	 0.31932	
-1.53561	-6.55238	 0.31537	
 0.16930	-5.47984	 0.31925	
 1.11680	-5.51335	 0.32935	
 2.15458	-5.51039	 0.34941	
 3.13751	-5.49358	 0.34191	
 4.25397	-5.57501	 0.35678	
 5.20080	-5.43818	 0.34976	
 6.14341	-5.48128	 0.36260	
 7.12895	-5.39273	 0.31729	
 8.12775	-5.63510	 0.32623	
 9.09629	-5.44100	 0.30946	
 10.17215	-5.43056	 0.29641	
 11.38148	-5.38442	 0.35744	
-11.31479	-5.42907	 0.31266	
-10.22174	-5.40523	 0.33180	
-9.21606	-5.50581	 0.33011	
-8.15178	-5.45676	 0.34676	
-7.07893	-5.45354	 0.34614	
-6.03552	-5.42105	 0.34907	
-4.83222	-5.46449	 0.33012	
-3.90210	-5.48320	 0.33007	
-2.95732	-5.51197	 0.34303	
-1.92842	-5.53411	 0.34580	
-0.88083	-5.43166	 0.34566	
-0.20572	-4.45116	 0.33336	
 0.79611	-4.47793	 0.33774	
 1.82715	-4.53890	 0.35146	
 2.86138	-4.49643	 0.34784	
 3.89418	-4.45507	 0.30479	
 4.86782	-4.39318	 0.31266	
 5.88734	-4.41813	 0.36507	
 6.85377	-4.32523	 0.33724	
 7.85234	-4.53517	 0.32528	
 8.88814	-4.52354	 0.28466	
 9.91476	-4.33898	 0.30075	
 10.97667	-4.45895	 0.34583	
-11.71795	-4.43418	 0.29040	
-10.74567	-4.39608	 0.33768	
-9.64386	-4.47743	 0.36603	
-8.65631	-4.54029	 0.36104	
-7.57693	-4.49425	 0.35949	
-6.61998	-4.43184	 0.34358	
-5.53250	-4.45656	 0.35179	
-4.36248	-4.44219	 0.33093	
-3.33425	-4.48379	 0.33157	
-2.33689	-4.55229	 0.35207	
-1.34870	-4.51354	 0.32632	
 0.27652	-3.40323	 0.33795	
 3.90102	-2.84139	-0.33146	
 1.32766	-3.39987	 0.33152	
 2.64669	-3.37646	 0.30419	
 3.70839	-3.39470	 0.33970	
 5.08242	-3.41710	 0.33981	
 6.35785	-3.34886	 0.32291	
 7.57904	-3.31413	 0.33625	
 8.61033	-3.44354	 0.32588	
 9.66010	-3.38328	 0.35653	
 10.61596	-3.41654	 0.34985	
 11.53418	-3.35669	 0.33640	
-11.34800	-3.39449	 0.32203	
-10.29814	-3.49443	 0.30807	
-9.26484	-3.52536	 0.32138	
-8.22646	-3.49641	 0.34217	
-7.19468	-3.41863	 0.33642	
-6.06330	-3.46358	 0.33052	
-5.06853	-3.36812	 0.29801	
-4.05837	-3.37147	 0.36977	
-3.02603	-3.47808	 0.35070	
-1.99635	-3.49849	 0.34402	
-0.95186	-3.46207	 0.34257	
-1.14520	-2.36867	 0.35389	
 0.05077	-2.32568	 0.34491	
 1.14053	-2.34743	 0.31648	
 2.21035	-2.32375	 0.30382	
 3.22875	-2.33027	 0.33092	
 4.31424	-2.29198	 0.31875	
 5.24376	-2.39760	 0.35303	
 6.17466	-2.40224	 0.28900	
 7.08474	-2.34022	 0.33864	
 8.14168	-2.36532	 0.35974	
 9.07702	-2.43893	 0.35317	
 10.09222	-2.37626	 0.34633	
 11.04505	-2.33124	 0.32461	
-11.74691	-2.36416	 0.33270	
-10.74965	-2.34042	 0.35732	
-9.72785	-2.42490	 0.34301	
-8.70385	-2.38659	 0.35254	
-7.68982	-2.39224	 0.31245	
-6.53676	-2.42603	 0.33545	
-5.50724	-2.42867	 0.33598	
-4.31048	-2.35755	 0.36442	
-3.24665	-2.35758	 0.33089	
-2.29257	-2.42230	 0.34555	
 0.08336	-1.32675	 0.35111	
 1.13162	-1.32786	 0.34393	
 2.20582	-1.35629	 0.34039	
 3.20926	-1.20416	 0.32607	
 4.25749	-1.21959	 0.31985	
 5.30261	-1.33031	 0.32845	
 6.38081	-1.37895	 0.32762	
 7.40605	-1.32149	 0.31264	
 8.42166	-1.27189	 0.36393	
 9.49845	-1.26275	 0.33271	
 10.51087	-1.33580	 0.36582	
 11.57739	-1.26566	 0.33377	
-11.21047	-1.31821	 0.33942	
-10.19500	-1.33614	 0.33616	
-9.14767	-1.30932	 0.34782	
-8.10042	-1.37537	 0.35155	
-7.08281	-1.23225	 0.33626	
-6.05157	-1.26312	 0.33728	
-5.03636	-1.27786	 0.32604	
-3.95215	-1.32468	 0.33943	
-2.96722	-1.21943	 0.33248	
-1.89274	-1.35022	 0.31765	
-0.91797	-1.34445	 0.33597	
 0.65609	-0.26192	 0.34613	
 1.66063	-0.28173	 0.34844	
 2.70838	-0.21464	 0.34192	
 3.78303	-0.24280	 0.35020	
 4.78832	-0.17518	 0.34291	
 5.81092	-0.16948	 0.34108	
 6.80385	-0.28894	 0.33894	
 7.90850	-0.23910	 0.32021	
 8.93250	-0.20564	 0.34110	
 9.89118	-0.16743	 0.34106	
 10.90225	-0.32992	 0.32272	
-11.77973	-0.20733	 0.34677	
-10.78981	-0.33527	 0.32328	
-9.76843	-0.25714	 0.33343	
-8.68178	-0.24865	 0.32698	
-7.64130	-0.25670	 0.34744	
-6.62450	-0.20290	 0.33300	
-5.63344	-0.16079	 0.35382	