ITEM: TIMESTEP
0
ITEM: BOX BOUNDS xx yy zz
-46.24973	 46.24973	
-46.24973	 46.24973	
-1.10000	 1.10000	
ITEM: NUMBER OF ATOMS
15842
ITEM: ATOMS index x y z diameter charge species
   0	 0.00000000e+00	 0.00000000e+00	-4.40000000e-01	1.000	 35	 0	
   1	 1.03931975e+00	 0.00000000e+00	-4.40000000e-01	1.000	 35	 0	
   2	 2.07863951e+00	 0.00000000e+00	-4.40000000e-01	1.000	 35	 0	
   3	 3.11795926e+00	 0.00000000e+00	-4.40000000e-01	1.000	 35	 0	
   4	 4.15727901e+00	 0.00000000e+00	-4.40000000e-01	1.000	 35	 0	
   5	 5.19659876e+00	 0.00000000e+00	-4.40000000e-01	1.000	 35	 0	
   6	 6.23591852e+00	 0.00000000e+00	-4.40000000e-01	1.000	 35	 0	
   7	 7.27523827e+00	 0.00000000e+00	-4.40000000e-01	1.000	 35	 0	
   8	 8.31455802e+00	 0.00000000e+00	-4.40000000e-01	1.000	 35	 0	
   9	 9.35387778e+00	 0.00000000e+00	-4.40000000e-01	1.000	 35	 0	
  10	 1.03931975e+01	 0.00000000e+00	-4.40000000e-01	1.000	 35	 0	
  11	 1.14325173e+01	 0.00000000e+00	-4.40000000e-01	1.000	 35	 0	
  12	 1.24718370e+01	 0.00000000e+00	-4.40000000e-01	1.000	 35	 0	
  13	 1.35111568e+01	 0.00000000e+00	-4.40000000e-01	1.000	 35	 0	
  14	 1.45504765e+01	 0.00000000e+00	-4.40000000e-01	1.000	 35	 0	
  15	 1.55897963e+01	 0.00000000e+00	-4.40000000e-01	1.000	 35	 0	
  16	 1.66291160e+01	 0.00000000e+00	-4.40000000e-01	1.000	 35	 0	
  17	 1.76684358e+01	 0.00000000e+00	-4.40000000e-01	1.000	 35	 0	
  18	 1.87077556e+01	 0.00000000e+00	-4.40000000e-01	1.000	 35	 0	
  19	 1.97470753e+01	 0.00000000e+00	-4.40000000e-01	1.000	 35	 0	
  20	 2.07863951e+01	 0.00000000e+00	-4.40000000e-01	1.000	 35	 0	
  21	 2.18257148e+01	 0.00000000e+00	-4.40000000e-01	1.000	 35	 0	
  22	 2.28650346e+01	 0.00000000e+00	-4.40000000e-01	1.000	 35	 0	
  23	 2.39043543e+01	 0.00000000e+00	-4.40000000e-01	1.000	 35	 0	
  24	 2.49436741e+01	 0.00000000e+00	-4.40000000e-01	1.000	 35	 0	
  25	 2.59829938e+01	 0.00000000e+00	-4.40000000e-01	1.000	 35	 0	
  26	 2.70223136e+01	 0.00000000e+00	-4.40000000e-01	1.000	 35	 0	
  27	 2.80616333e+01	 0.00000000e+00	-4.40000000e-01	1.000	 35	 0	
  28	 2.91009531e+01	 0.00000000e+00	-4.40000000e-01	1.000	 35	 0	
  29	 3.01402728e+01	 0.00000000e+00	-4.40000000e-01	1.000	 35	 0	
  30	 3.11795926e+01	 0.00000000e+00	-4.40000000e-01	1.000	 35	 0	
  31	 3.22189123e+01	 0.00000000e+00	-4.40000000e-01	1.000	 35	 0	
  32	 3.32582321e+01	 0.00000000e+00	-4.40000000e-01	1.000	 35	 0	
  33	 3.42975518e+01	 0.00000000e+00	-4.40000000e-01	1.000	 35	 0	
  34	 3.53368716e+01	 0.00000000e+00	-4.40000000e-01	1.000	 35	 0	
  35	 3.63761914e+01	 0.00000000e+00	-4.40000000e-01	1.000	 35	 0	
  36	 3.74155111e+01	 0.00000000e+00	-4.40000000e-01	1.000	 35	 0	
  37	 3.84548309e+01	 0.00000000e+00	-4.40000000e-01	1.000	 35	 0	
  38	 3.94941506e+01	 0.00000000e+00	-4.40000000e-01	1.000	 35	 0	
  39	 4.05334704e+01	 0.00000000e+00	-4.40000000e-01	1.000	 35	 0	
  40	 4.15727901e+01	 0.00000000e+00	-4.40000000e-01	1.000	 35	 0	
  41	 4.26121099e+01	 0.00000000e+00	-4.40000000e-01	1.000	 35	 0	
  42	 4.36514296e+01	 0.00000000e+00	-4.40000000e-01	1.000	 35	 0	
  43	 4.46907494e+01	 0.00000000e+00	-4.40000000e-01	1.000	 35	 0	
  44	 4.57300691e+01	 0.00000000e+00	-4.40000000e-01	1.000	 35	 0	
  45	-4.57300691e+01	 0.00000000e+00	-4.40000000e-01	1.000	 35	 0	
  46	-4.46907494e+01	 0.00000000e+00	-4.40000000e-01	1.000	 35	 0	
  47	-4.36514296e+01	 0.00000000e+00	-4.40000000e-01	1.000	 35	 0	
  48	-4.26121099e+01	 0.00000000e+00	-4.40000000e-01	1.000	 35	 0	
  49	-4.15727901e+01	 0.00000000e+00	-4.40000000e-01	1.000	 35	 0	
  50	-4.05334704e+01	 0.00000000e+00	-4.40000000e-01	1.000	 35	 0	
  51	-3.94941506e+01	 0.00000000e+00	-4.40000000e-01	1.000	 35	 0	
  52	-3.84548309e+01	 0.00000000e+00	-4.40000000e-01	1.000	 35	 0	
  53	-3.74155111e+01	 0.00000000e+00	-4.40000000e-01	1.000	 35	 0	
  54	-3.63761914e+01	 0.00000000e+00	-4.40000000e-01	1.000	 35	 0	
  55	-3.53368716e+01	 0.00000000e+00	-4.40000000e-01	1.000	 35	 0	
  56	-3.42975518e+01	 0.00000000e+00	-4.40000000e-01	1.000	 35	 0	
  57	-3.32582321e+01	 0.00000000e+00	-4.40000000e-01	1.000	 35	 0	
  58	-3.22189123e+01	 0.00000000e+00	-4.40000000e-01	1.000	 35	 0	
  59	-3.11795926e+01	 0.00000000e+00	-4.40000000e-01	1.000	 35	 0	
  60	-3.01402728e+01	 0.00000000e+00	-4.40000000e-01	1.000	 35	 0	
  61	-2.91009531e+01	 0.00000000e+00	-4.40000000e-01	1.000	 35	 0	
  62	-2.80616333e+01	 0.00000000e+00	-4.40000000e-01	1.000	 35	 0	
  63	-2.70223136e+01	 0.00000000e+00	-4.40000000e-01	1.000	 35	 0	
  64	-2.59829938e+01	 0.00000000e+00	-4.40000000e-01	1.000	 35	 0	
  65	-2.49436741e+01	 0.00000000e+00	-4.40000000e-01	1.000	 35	 0	
  66	-2.39043543e+01	 0.00000000e+00	-4.40000000e-01	1.000	 35	 0	
  67	-2.28650346e+01	 0.00000000e+00	-4.40000000e-01	1.000	 35	 0	
  68	-2.18257148e+01	 0.00000000e+00	-4.40000000e-01	1.000	 35	 0	
  69	-2.07863951e+01	 0.00000000e+00	-4.40000000e-01	1.000	 35	 0	
  70	-1.97470753e+01	 0.00000000e+00	-4.40000000e-01	1.000	 35	 0	
  71	-1.87077556e+01	 0.00000000e+00	-4.40000000e-01	1.000	 35	 0	
  72	-1.76684358e+01	 0.00000000e+00	-4.40000000e-01	1.000	 35	 0	
  73	-1.66291160e+01	 0.00000000e+00	-4.40000000e-01	1.000	 35	 0	
  74	-1.55897963e+01	 0.00000000e+00	-4.40000000e-01	1.000	 35	 0	
  75	-1.45504765e+01	 0.00000000e+00	-4.40000000e-01	1.000	 35	 0	
  76	-1.35111568e+01	 0.00000000e+00	-4.40000000e-01	1.000	 35	 0	
  77	-1.24718370e+01	 0.00000000e+00	-4.40000000e-01	1.000	 35	 0	
  78	-1.14325173e+01	 0.00000000e+00	-4.40000000e-01	1.000	 35	 0	
  79	-1.03931975e+01	 0.00000000e+00	-4.40000000e-01	1.000	 35	 0	
  80	-9.35387778e+00	 0.00000000e+00	-4.40000000e-01	1.000	 35	 0	
  81	-8.31455802e+00	 0.00000000e+00	-4.40000000e-01	1.000	 35	 0	
  82	-7.27523827e+00	 0.00000000e+00	-4.40000000e-01	1.000	 35	 0	
  83	-6.23591852e+00	 0.00000000e+00	-4.40000000e-01	1.000	 35	 0	
  84	-5.19659876e+00	 0.00000000e+00	-4.40000000e-01	1.000	 35	 0	
  85	-4.15727901e+00	 0.00000000e+00	-4.40000000e-01	1.000	 35	 0	
  86	-3.11795926e+00	 0.00000000e+00	-4.40000000e-01	1.000	 35	 0	
  87	-2.07863951e+00	 0.00000000e+00	-4.40000000e-01	1.000	 35	 0	
  88	-1.03931975e+00	 0.00000000e+00	-4.40000000e-01	1.000	 35	 0	
  89	 0.00000000e+00	 1.03931975e+00	-4.40000000e-01	1.000	 35	 0	
  90	 1.03931975e+00	 1.03931975e+00	-4.40000000e-01	1.000	 35	 0	
  91	 2.07863951e+00	 1.03931975e+00	-4.40000000e-01	1.000	 35	 0	
  92	 3.11795926e+00	 1.03931975e+00	-4.40000000e-01	1.000	 35	 0	
  93	 4.15727901e+00	 1.03931975e+00	-4.40000000e-01	1.000	 35	 0	
  94	 5.19659876e+00	 1.03931975e+00	-4.40000000e-01	1.000	 35	 0	
  95	 6.23591852e+00	 1.03931975e+00	-4.40000000e-01	1.000	 35	 0	
  96	 7.27523827e+00	 1.03931975e+00	-4.40000000e-01	1.000	 35	 0	
  97	 8.31455802e+00	 1.03931975e+00	-4.40000000e-01	1.000	 35	 0	
  98	 9.35387778e+00	 1.03931975e+00	-4.40000000e-01	1.000	 35	 0	
  99	 1.03931975e+01	 1.03931975e+00	-4.40000000e-01	1.000	 35	 0	
 100	 1.14325173e+01	 1.03931975e+00	-4.40000000e-01	1.000	 35	 0	
 101	 1.24718370e+01	 1.03931975e+00	-4.40000000e-01	1.000	 35	 0	
 102	 1.35111568e+01	 1.03931975e+00	-4.40000000e-01	1.000	 35	 0	
 103	 1.45504765e+01	 1.03931975e+00	-4.40000000e-01	1.000	 35	 0	
 104	 1.55897963e+01	 1.03931975e+00	-4.40000000e-01	1.000	 35	 0	
 105	 1.66291160e+01	 1.03931975e+00	-4.40000000e-01	1.000	 35	 0	
 106	 1.76684358e+01	 1.03931975e+00	-4.40000000e-01	1.000	 35	 0	
 107	 1.87077556e+01	 1.03931975e+00	-4.40000000e-01	1.000	 35	 0	
 108	 1.97470753e+01	 1.03931975e+00	-4.40000000e-01	1.000	 35	 0	
 109	 2.07863951e+01	 1.03931975e+00	-4.40000000e-01	1.000	 35	 0	
 110	 2.18257148e+01	 1.03931975e+00	-4.40000000e-01	1.000	 35	 0	
 111	 2.28650346e+01	 1.03931975e+00	-4.40000000e-01	1.000	 35	 0	
 112	 2.39043543e+01	 1.03931975e+00	-4.40000000e-01	1.000	 35	 0	
 113	 2.49436741e+01	 1.03931975e+00	-4.40000000e-01	1.000	 35	 0	
 114	 2.59829938e+01	 1.03931975e+00	-4.40000000e-01	1.000	 35	 0	
 115	 2.70223136e+01	 1.03931975e+00	-4.40000000e-01	1.000	 35	 0	
 116	 2.80616333e+01	 1.03931975e+00	-4.40000000e-01	1.000	 35	 0	
 117	 2.91009531e+01	 1.03931975e+00	-4.40000000e-01	1.000	 35	 0	
 118	 3.01402728e+01	 1.03931975e+00	-4.40000000e-01	1.000	 35	 0	
 119	 3.11795926e+01	 1.03931975e+00	-4.40000000e-01	1.000	 35	 0	
 120	 3.22189123e+01	 1.03931975e+00	-4.40000000e-01	1.000	 35	 0	
 121	 3.32582321e+01	 1.03931975e+00	-4.40000000e-01	1.000	 35	 0	
 122	 3.42975518e+01	 1.03931975e+00	-4.40000000e-01	1.000	 35	 0	
 123	 3.53368716e+01	 1.03931975e+00	-4.40000000e-01	1.000	 35	 0	
 124	 3.63761914e+01	 1.03931975e+00	-4.40000000e-01	1.000	 35	 0	
 125	 3.74155111e+01	 1.03931975e+00	-4.40000000e-01	1.000	 35	 0	
 126	 3.84548309e+01	 1.03931975e+00	-4.40000000e-01	1.000	 35	 0	
 127	 3.94941506e+01	 1.03931975e+00	-4.40000000e-01	1.000	 35	 0	
 128	 4.05334704e+01	 1.03931975e+00	-4.40000000e-01	1.000	 35	 0	
 129	 4.15727901e+01	 1.03931975e+00	-4.40000000e-01	1.000	 35	 0	
 130	 4.26121099e+01	 1.03931975e+00	-4.40000000e-01	1.000	 35	 0	
 131	 4.36514296e+01	 1.03931975e+00	-4.40000000e-01	1.000	 35	 0	
 132	 4.46907494e+01	 1.03931975e+00	-4.40000000e-01	1.000	 35	 0	
 133	 4.57300691e+01	 1.03931975e+00	-4.40000000e-01	1.000	 35	 0	
 134	-4.57300691e+01	 1.03931975e+00	-4.40000000e-01	1.000	 35	 0	
 135	-4.46907494e+01	 1.03931975e+00	-4.40000000e-01	1.000	 35	 0	
 136	-4.36514296e+01	 1.03931975e+00	-4.40000000e-01	1.000	 35	 0	
 137	-4.26121099e+01	 1.03931975e+00	-4.40000000e-01	1.000	 35	 0	
 138	-4.15727901e+01	 1.03931975e+00	-4.40000000e-01	1.000	 35	 0	
 139	-4.05334704e+01	 1.03931975e+00	-4.40000000e-01	1.000	 35	 0	
 140	-3.94941506e+01	 1.03931975e+00	-4.40000000e-01	1.000	 35	 0	
 141	-3.84548309e+01	 1.03931975e+00	-4.40000000e-01	1.000	 35	 0	
 142	-3.74155111e+01	 1.03931975e+00	-4.40000000e-01	1.000	 35	 0	
 143	-3.63761914e+01	 1.03931975e+00	-4.40000000e-01	1.000	 35	 0	
 144	-3.53368716e+01	 1.03931975e+00	-4.40000000e-01	1.000	 35	 0	
 145	-3.42975518e+01	 1.03931975e+00	-4.40000000e-01	1.000	 35	 0	
 146	-3.32582321e+01	 1.03931975e+00	-4.40000000e-01	1.000	 35	 0	
 147	-3.22189123e+01	 1.03931975e+00	-4.40000000e-01	1.000	 35	 0	
 148	-3.11795926e+01	 1.03931975e+00	-4.40000000e-01	1.000	 35	 0	
 149	-3.01402728e+01	 1.03931975e+00	-4.40000000e-01	1.000	 35	 0	
 150	-2.91009531e+01	 1.03931975e+00	-4.40000000e-01	1.000	 35	 0	
 151	-2.80616333e+01	 1.03931975e+00	-4.40000000e-01	1.000	 35	 0	
 152	-2.70223136e+01	 1.03931975e+00	-4.40000000e-01	1.000	 35	 0	
 153	-2.59829938e+01	 1.03931975e+00	-4.40000000e-01	1.000	 35	 0	
 154	-2.49436741e+01	 1.03931975e+00	-4.40000000e-01	1.000	 35	 0	
 155	-2.39043543e+01	 1.03931975e+00	-4.40000000e-01	1.000	 35	 0	
 156	-2.28650346e+01	 1.03931975e+00	-4.40000000e-01	1.000	 35	 0	
 157	-2.18257148e+01	 1.03931975e+00	-4.40000000e-01	1.000	 35	 0	
 158	-2.07863951e+01	 1.03931975e+00	-4.40000000e-01	1.000	 35	 0	
 159	-1.97470753e+01	 1.03931975e+00	-4.40000000e-01	1.000	 35	 0	
 160	-1.87077556e+01	 1.03931975e+00	-4.40000000e-01	1.000	 35	 0	
 161	-1.76684358e+01	 1.03931975e+00	-4.40000000e-01	1.000	 35	 0	
 162	-1.66291160e+01	 1.03931975e+00	-4.40000000e-01	1.000	 35	 0	
 163	-1.55897963e+01	 1.03931975e+00	-4.40000000e-01	1.000	 35	 0	
 164	-1.45504765e+01	 1.03931975e+00	-4.40000000e-01	1.000	 35	 0	
 165	-1.35111568e+01	 1.03931975e+00	-4.40000000e-01	1.000	 35	 0	
 166	-1.24718370e+01	 1.03931975e+00	-4.40000000e-01	1.000	 35	 0	
 167	-1.14325173e+01	 1.03931975e+00	-4.40000000e-01	1.000	 35	 0	
 168	-1.03931975e+01	 1.03931975e+00	-4.40000000e-01	1.000	 35	 0	
 169	-9.35387778e+00	 1.03931975e+00	-4.40000000e-01	1.000	 35	 0	
 170	-8.31455802e+00	 1.03931975e+00	-4.40000000e-01	1.000	 35	 0	
 171	-7.27523827e+00	 1.03931975e+00	-4.40000000e-01	1.000	 35	 0	
 172	-6.23591852e+00	 1.03931975e+00	-4.40000000e-01	1.000	 35	 0	
 173	-5.19659876e+00	 1.03931975e+00	-4.40000000e-01	1.000	 35	 0	
 174	-4.15727901e+00	 1.03931975e+00	-4.40000000e-01	1.000	 35	 0	
 175	-3.11795926e+00	 1.03931975e+00	-4.40000000e-01	1.000	 35	 0	
 176	-2.07863951e+00	 1.03931975e+00	-4.40000000e-01	1.000	 35	 0	
 177	-1.03931975e+00	 1.03931975e+00	-4.40000000e-01	1.000	 35	 0	
 178	 0.00000000e+00	 2.07863951e+00	-4.40000000e-01	1.000	 35	 0	
 179	 1.03931975e+00	 2.07863951e+00	-4.40000000e-01	1.000	 35	 0	
 180	 2.07863951e+00	 2.07863951e+00	-4.40000000e-01	1.000	 35	 0	
 181	 3.11795926e+00	 2.07863951e+00	-4.40000000e-01	1.000	 35	 0	
 182	 4.15727901e+00	 2.07863951e+00	-4.40000000e-01	1.000	 35	 0	
 183	 5.19659876e+00	 2.07863951e+00	-4.40000000e-01	1.000	 35	 0	
 184	 6.23591852e+00	 2.07863951e+00	-4.40000000e-01	1.000	 35	 0	
 185	 7.27523827e+00	 2.07863951e+00	-4.40000000e-01	1.000	 35	 0	
 186	 8.31455802e+00	 2.07863951e+00	-4.40000000e-01	1.000	 35	 0	
 187	 9.35387778e+00	 2.07863951e+00	-4.40000000e-01	1.000	 35	 0	
 188	 1.03931975e+01	 2.07863951e+00	-4.40000000e-01	1.000	 35	 0	
 189	 1.14325173e+01	 2.07863951e+00	-4.40000000e-01	1.000	 35	 0	
 190	 1.24718370e+01	 2.07863951e+00	-4.40000000e-01	1.000	 35	 0	
 191	 1.35111568e+01	 2.07863951e+00	-4.40000000e-01	1.000	 35	 0	
 192	 1.45504765e+01	 2.07863951e+00	-4.40000000e-01	1.000	 35	 0	
 193	 1.55897963e+01	 2.07863951e+00	-4.40000000e-01	1.000	 35	 0	
 194	 1.66291160e+01	 2.07863951e+00	-4.40000000e-01	1.000	 35	 0	
 195	 1.76684358e+01	 2.07863951e+00	-4.40000000e-01	1.000	 35	 0	
 196	 1.87077556e+01	 2.07863951e+00	-4.40000000e-01	1.000	 35	 0	
 197	 1.97470753e+01	 2.07863951e+00	-4.40000000e-01	1.000	 35	 0	
 198	 2.07863951e+01	 2.07863951e+00	-4.40000000e-01	1.000	 35	 0	
 199	 2.18257148e+01	 2.07863951e+00	-4.40000000e-01	1.000	 35	 0	
 200	 2.28650346e+01	 2.07863951e+00	-4.40000000e-01	1.000	 35	 0	
 201	 2.39043543e+01	 2.07863951e+00	-4.40000000e-01	1.000	 35	 0	
 202	 2.49436741e+01	 2.07863951e+00	-4.40000000e-01	1.000	 35	 0	
 203	 2.59829938e+01	 2.07863951e+00	-4.40000000e-01	1.000	 35	 0	
 204	 2.70223136e+01	 2.07863951e+00	-4.40000000e-01	1.000	 35	 0	
 205	 2.80616333e+01	 2.07863951e+00	-4.40000000e-01	1.000	 35	 0	
 206	 2.91009531e+01	 2.07863951e+00	-4.40000000e-01	1.000	 35	 0	
 207	 3.01402728e+01	 2.07863951e+00	-4.40000000e-01	1.000	 35	 0	
 208	 3.11795926e+01	 2.07863951e+00	-4.40000000e-01	1.000	 35	 0	
 209	 3.22189123e+01	 2.07863951e+00	-4.40000000e-01	1.000	 35	 0	
 210	 3.32582321e+01	 2.07863951e+00	-4.40000000e-01	1.000	 35	 0	
 211	 3.42975518e+01	 2.07863951e+00	-4.40000000e-01	1.000	 35	 0	
 212	 3.53368716e+01	 2.07863951e+00	-4.40000000e-01	1.000	 35	 0	
 213	 3.63761914e+01	 2.07863951e+00	-4.40000000e-01	1.000	 35	 0	
 214	 3.74155111e+01	 2.07863951e+00	-4.40000000e-01	1.000	 35	 0	
 215	 3.84548309e+01	 2.07863951e+00	-4.40000000e-01	1.000	 35	 0	
 216	 3.94941506e+01	 2.07863951e+00	-4.40000000e-01	1.000	 35	 0	
 217	 4.05334704e+01	 2.07863951e+00	-4.40000000e-01	1.000	 35	 0	
 218	 4.15727901e+01	 2.07863951e+00	-4.40000000e-01	1.000	 35	 0	
 219	 4.26121099e+01	 2.07863951e+00	-4.40000000e-01	1.000	 35	 0	
 220	 4.36514296e+01	 2.07863951e+00	-4.40000000e-01	1.000	 35	 0	
 221	 4.46907494e+01	 2.07863951e+00	-4.40000000e-01	1.000	 35	 0	
 222	 4.57300691e+01	 2.07863951e+00	-4.40000000e-01	1.000	 35	 0	
 223	-4.57300691e+01	 2.07863951e+00	-4.40000000e-01	1.000	 35	 0	
 224	-4.46907494e+01	 2.07863951e+00	-4.40000000e-01	1.000	 35	 0	
 225	-4.36514296e+01	 2.07863951e+00	-4.40000000e-01	1.000	 35	 0	
 226	-4.26121099e+01	 2.07863951e+00	-4.40000000e-01	1.000	 35	 0	
 227	-4.15727901e+01	 2.07863951e+00	-4.40000000e-01	1.000	 35	 0	
 228	-4.05334704e+01	 2.07863951e+00	-4.40000000e-01	1.000	 35	 0	
 229	-3.94941506e+01	 2.07863951e+00	-4.40000000e-01	1.000	 35	 0	
 230	-3.84548309e+01	 2.07863951e+00	-4.40000000e-01	1.000	 35	 0	
 231	-3.74155111e+01	 2.07863951e+00	-4.40000000e-01	1.000	 35	 0	
 232	-3.63761914e+01	 2.07863951e+00	-4.40000000e-01	1.000	 35	 0	
 233	-3.53368716e+01	 2.07863951e+00	-4.40000000e-01	1.000	 35	 0	
 234	-3.42975518e+01	 2.07863951e+00	-4.40000000e-01	1.000	 35	 0	
 235	-3.32582321e+01	 2.07863951e+00	-4.40000000e-01	1.000	 35	 0	
 236	-3.22189123e+01	 2.07863951e+00	-4.40000000e-01	1.000	 35	 0	
 237	-3.11795926e+01	 2.07863951e+00	-4.40000000e-01	1.000	 35	 0	
 238	-3.01402728e+01	 2.07863951e+00	-4.40000000e-01	1.000	 35	 0	
 239	-2.91009531e+01	 2.07863951e+00	-4.40000000e-01	1.000	 35	 0	
 240	-2.80616333e+01	 2.07863951e+00	-4.40000000e-01	1.000	 35	 0	
 241	-2.70223136e+01	 2.07863951e+00	-4.40000000e-01	1.000	 35	 0	
 242	-2.59829938e+01	 2.07863951e+00	-4.40000000e-01	1.000	 35	 0	
 243	-2.49436741e+01	 2.07863951e+00	-4.40000000e-01	1.000	 35	 0	
 244	-2.39043543e+01	 2.07863951e+00	-4.40000000e-01	1.000	 35	 0	
 245	-2.28650346e+01	 2.07863951e+00	-4.40000000e-01	1.000	 35	 0	
 246	-2.18257148e+01	 2.07863951e+00	-4.40000000e-01	1.000	 35	 0	
 247	-2.07863951e+01	 2.07863951e+00	-4.40000000e-01	1.000	 35	 0	
 248	-1.97470753e+01	 2.07863951e+00	-4.40000000e-01	1.000	 35	 0	
 249	-1.87077556e+01	 2.07863951e+00	-4.40000000e-01	1.000	 35	 0	
 250	-1.76684358e+01	 2.07863951e+00	-4.40000000e-01	1.000	 35	 0	
 251	-1.66291160e+01	 2.07863951e+00	-4.40000000e-01	1.000	 35	 0	
 252	-1.55897963e+01	 2.07863951e+00	-4.40000000e-01	1.000	 35	 0	
 253	-1.45504765e+01	 2.07863951e+00	-4.40000000e-01	1.000	 35	 0	
 254	-1.35111568e+01	 2.07863951e+00	-4.40000000e-01	1.000	 35	 0	
 255	-1.24718370e+01	 2.07863951e+00	-4.40000000e-01	1.000	 35	 0	
 256	-1.14325173e+01	 2.07863951e+00	-4.40000000e-01	1.000	 35	 0	
 257	-1.03931975e+01	 2.07863951e+00	-4.40000000e-01	1.000	 35	 0	
 258	-9.35387778e+00	 2.07863951e+00	-4.40000000e-01	1.000	 35	 0	
 259	-8.31455802e+00	 2.07863951e+00	-4.40000000e-01	1.000	 35	 0	
 260	-7.27523827e+00	 2.07863951e+00	-4.40000000e-01	1.000	 35	 0	
 261	-6.23591852e+00	 2.07863951e+00	-4.40000000e-01	1.000	 35	 0	
 262	-5.19659876e+00	 2.07863951e+00	-4.40000000e-01	1.000	 35	 0	
 263	-4.15727901e+00	 2.07863951e+00	-4.40000000e-01	1.000	 35	 0	
 264	-3.11795926e+00	 2.07863951e+00	-4.40000000e-01	1.000	 35	 0	
 265	-2.07863951e+00	 2.07863951e+00	-4.40000000e-01	1.000	 35	 0	
 266	-1.03931975e+00	 2.07863951e+00	-4.40000000e-01	1.000	 35	 0	
 267	 0.00000000e+00	 3.11795926e+00	-4.40000000e-01	1.000	 35	 0	
 268	 1.03931975e+00	 3.11795926e+00	-4.40000000e-01	1.000	 35	 0	
 269	 2.07863951e+00	 3.11795926e+00	-4.40000000e-01	1.000	 35	 0	
 270	 3.11795926e+00	 3.11795926e+00	-4.40000000e-01	1.000	 35	 0	
 271	 4.15727901e+00	 3.11795926e+00	-4.40000000e-01	1.000	 35	 0	
 272	 5.19659876e+00	 3.11795926e+00	-4.40000000e-01	1.000	 35	 0	
 273	 6.23591852e+00	 3.11795926e+00	-4.40000000e-01	1.000	 35	 0	
 274	 7.27523827e+00	 3.11795926e+00	-4.40000000e-01	1.000	 35	 0	
 275	 8.31455802e+00	 3.11795926e+00	-4.40000000e-01	1.000	 35	 0	
 276	 9.35387778e+00	 3.11795926e+00	-4.40000000e-01	1.000	 35	 0	
 277	 1.03931975e+01	 3.11795926e+00	-4.40000000e-01	1.000	 35	 0	
 278	 1.14325173e+01	 3.11795926e+00	-4.40000000e-01	1.000	 35	 0	
 279	 1.24718370e+01	 3.11795926e+00	-4.40000000e-01	1.000	 35	 0	
 280	 1.35111568e+01	 3.11795926e+00	-4.40000000e-01	1.000	 35	 0	
 281	 1.45504765e+01	 3.11795926e+00	-4.40000000e-01	1.000	 35	 0	
 282	 1.55897963e+01	 3.11795926e+00	-4.40000000e-01	1.000	 35	 0	
 283	 1.66291160e+01	 3.11795926e+00	-4.40000000e-01	1.000	 35	 0	
 284	 1.76684358e+01	 3.11795926e+00	-4.40000000e-01	1.000	 35	 0	
 285	 1.87077556e+01	 3.11795926e+00	-4.40000000e-01	1.000	 35	 0	
 286	 1.97470753e+01	 3.11795926e+00	-4.40000000e-01	1.000	 35	 0	
 287	 2.07863951e+01	 3.11795926e+00	-4.40000000e-01	1.000	 35	 0	
 288	 2.18257148e+01	 3.11795926e+00	-4.40000000e-01	1.000	 35	 0	
 289	 2.28650346e+01	 3.11795926e+00	-4.40000000e-01	1.000	 35	 0	
 290	 2.39043543e+01	 3.11795926e+00	-4.40000000e-01	1.000	 35	 0	
 291	 2.49436741e+01	 3.11795926e+00	-4.40000000e-01	1.000	 35	 0	
 292	 2.59829938e+01	 3.11795926e+00	-4.40000000e-01	1.000	 35	 0	
 293	 2.70223136e+01	 3.11795926e+00	-4.40000000e-01	1.000	 35	 0	
 294	 2.80616333e+01	 3.11795926e+00	-4.40000000e-01	1.000	 35	 0	
 295	 2.91009531e+01	 3.11795926e+00	-4.40000000e-01	1.000	 35	 0	
 296	 3.01402728e+01	 3.11795926e+00	-4.40000000e-01	1.000	 35	 0	
 297	 3.11795926e+01	 3.11795926e+00	-4.40000000e-01	1.000	 35	 0	
 298	 3.22189123e+01	 3.11795926e+00	-4.40000000e-01	1.000	 35	 0	
 299	 3.32582321e+01	 3.11795926e+00	-4.40000000e-01	1.000	 35	 0	
 300	 3.42975518e+01	 3.11795926e+00	-4.40000000e-01	1.000	 35	 0	
 301	 3.53368716e+01	 3.11795926e+00	-4.40000000e-01	1.000	 35	 0	
 302	 3.63761914e+01	 3.11795926e+00	-4.40000000e-01	1.000	 35	 0	
 303	 3.74155111e+01	 3.11795926e+00	-4.40000000e-01	1.000	 35	 0	
 304	 3.84548309e+01	 3.11795926e+00	-4.40000000e-01	1.000	 35	 0	
 305	 3.94941506e+01	 3.11795926e+00	-4.40000000e-01	1.000	 35	 0	
 306	 4.05334704e+01	 3.11795926e+00	-4.40000000e-01	1.000	 35	 0	
 307	 4.15727901e+01	 3.11795926e+00	-4.40000000e-01	1.000	 35	 0	
 308	 4.26121099e+01	 3.11795926e+00	-4.40000000e-01	1.000	 35	 0	
 309	 4.36514296e+01	 3.11795926e+00	-4.40000000e-01	1.000	 35	 0	
 310	 4.46907494e+01	 3.11795926e+00	-4.40000000e-01	1.000	 35	 0	
 311	 4.57300691e+01	 3.11795926e+00	-4.40000000e-01	1.000	 35	 0	
 312	-4.57300691e+01	 3.11795926e+00	-4.40000000e-01	1.000	 35	 0	
 313	-4.46907494e+01	 3.11795926e+00	-4.40000000e-01	1.000	 35	 0	
 314	-4.36514296e+01	 3.11795926e+00	-4.40000000e-01	1.000	 35	 0	
 315	-4.26121099e+01	 3.11795926e+00	-4.40000000e-01	1.000	 35	 0	
 316	-4.15727901e+01	 3.11795926e+00	-4.40000000e-01	1.000	 35	 0	
 317	-4.05334704e+01	 3.11795926e+00	-4.40000000e-01	1.000	 35	 0	
 318	-3.94941506e+01	 3.11795926e+00	-4.40000000e-01	1.000	 35	 0	
 319	-3.84548309e+01	 3.11795926e+00	-4.40000000e-01	1.000	 35	 0	
 320	-3.74155111e+01	 3.11795926e+00	-4.40000000e-01	1.000	 35	 0	
 321	-3.63761914e+01	 3.11795926e+00	-4.40000000e-01	1.000	 35	 0	
 322	-3.53368716e+01	 3.11795926e+00	-4.40000000e-01	1.000	 35	 0	
 323	-3.42975518e+01	 3.11795926e+00	-4.40000000e-01	1.000	 35	 0	
 324	-3.32582321e+01	 3.11795926e+00	-4.40000000e-01	1.000	 35	 0	
 325	-3.22189123e+01	 3.11795926e+00	-4.40000000e-01	1.000	 35	 0	
 326	-3.11795926e+01	 3.11795926e+00	-4.40000000e-01	1.000	 35	 0	
 327	-3.01402728e+01	 3.11795926e+00	-4.40000000e-01	1.000	 35	 0	
 328	-2.91009531e+01	 3.11795926e+00	-4.40000000e-01	1.000	 35	 0	
 329	-2.80616333e+01	 3.11795926e+00	-4.40000000e-01	1.000	 35	 0	
 330	-2.70223136e+01	 3.11795926e+00	-4.40000000e-01	1.000	 35	 0	
 331	-2.59829938e+01	 3.11795926e+00	-4.40000000e-01	1.000	 35	 0	
 332	-2.49436741e+01	 3.11795926e+00	-4.40000000e-01	1.000	 35	 0	
 333	-2.39043543e+01	 3.11795926e+00	-4.40000000e-01	1.000	 35	 0	
 334	-2.28650346e+01	 3.11795926e+00	-4.40000000e-01	1.000	 35	 0	
 335	-2.18257148e+01	 3.11795926e+00	-4.40000000e-01	1.000	 35	 0	
 336	-2.07863951e+01	 3.11795926e+00	-4.40000000e-01	1.000	 35	 0	
 337	-1.97470753e+01	 3.11795926e+00	-4.40000000e-01	1.000	 35	 0	
 338	-1.87077556e+01	 3.11795926e+00	-4.40000000e-01	1.000	 35	 0	
 339	-1.76684358e+01	 3.11795926e+00	-4.40000000e-01	1.000	 35	 0	
 340	-1.66291160e+01	 3.11795926e+00	-4.40000000e-01	1.000	 35	 0	
 341	-1.55897963e+01	 3.11795926e+00	-4.40000000e-01	1.000	 35	 0	
 342	-1.45504765e+01	 3.11795926e+00	-4.40000000e-01	1.000	 35	 0	
 343	-1.35111568e+01	 3.11795926e+00	-4.40000000e-01	1.000	 35	 0	
 344	-1.24718370e+01	 3.11795926e+00	-4.40000000e-01	1.000	 35	 0	
 345	-1.14325173e+01	 3.11795926e+00	-4.40000000e-01	1.000	 35	 0	
 346	-1.03931975e+01	 3.11795926e+00	-4.40000000e-01	1.000	 35	 0	
 347	-9.35387778e+00	 3.11795926e+00	-4.40000000e-01	1.000	 35	 0	
 348	-8.31455802e+00	 3.11795926e+00	-4.40000000e-01	1.000	 35	 0	
 349	-7.27523827e+00	 3.11795926e+00	-4.40000000e-01	1.000	 35	 0	
 350	-6.23591852e+00	 3.11795926e+00	-4.40000000e-01	1.000	 35	 0	
 351	-5.19659876e+00	 3.11795926e+00	-4.40000000e-01	1.000	 35	 0	
 352	-4.15727901e+00	 3.11795926e+00	-4.40000000e-01	1.000	 35	 0	
 353	-3.11795926e+00	 3.11795926e+00	-4.40000000e-01	1.000	 35	 0	
 354	-2.07863951e+00	 3.11795926e+00	-4.40000000e-01	1.000	 35	 0	
 355	-1.03931975e+00	 3.11795926e+00	-4.40000000e-01	1.000	 35	 0	
 356	 0.00000000e+00	 4.15727901e+00	-4.40000000e-01	1.000	 35	 0	
 357	 1.03931975e+00	 4.15727901e+00	-4.40000000e-01	1.000	 35	 0	
 358	 2.07863951e+00	 4.15727901e+00	-4.40000000e-01	1.000	 35	 0	
 359	 3.11795926e+00	 4.15727901e+00	-4.40000000e-01	1.000	 35	 0	
 360	 4.15727901e+00	 4.15727901e+00	-4.40000000e-01	1.000	 35	 0	
 361	 5.19659876e+00	 4.15727901e+00	-4.40000000e-01	1.000	 35	 0	
 362	 6.23591852e+00	 4.15727901e+00	-4.40000000e-01	1.000	 35	 0	
 363	 7.27523827e+00	 4.15727901e+00	-4.40000000e-01	1.000	 35	 0	
 364	 8.31455802e+00	 4.15727901e+00	-4.40000000e-01	1.000	 35	 0	
 365	 9.35387778e+00	 4.15727901e+00	-4.40000000e-01	1.000	 35	 0	
 366	 1.03931975e+01	 4.15727901e+00	-4.40000000e-01	1.000	 35	 0	
 367	 1.14325173e+01	 4.15727901e+00	-4.40000000e-01	1.000	 35	 0	
 368	 1.24718370e+01	 4.15727901e+00	-4.40000000e-01	1.000	 35	 0	
 369	 1.35111568e+01	 4.15727901e+00	-4.40000000e-01	1.000	 35	 0	
 370	 1.45504765e+01	 4.15727901e+00	-4.40000000e-01	1.000	 35	 0	
 371	 1.55897963e+01	 4.15727901e+00	-4.40000000e-01	1.000	 35	 0	
 372	 1.66291160e+01	 4.15727901e+00	-4.40000000e-01	1.000	 35	 0	
 373	 1.76684358e+01	 4.15727901e+00	-4.40000000e-01	1.000	 35	 0	
 374	 1.87077556e+01	 4.15727901e+00	-4.40000000e-01	1.000	 35	 0	
 375	 1.97470753e+01	 4.15727901e+00	-4.40000000e-01	1.000	 35	 0	
 376	 2.07863951e+01	 4.15727901e+00	-4.40000000e-01	1.000	 35	 0	
 377	 2.18257148e+01	 4.15727901e+00	-4.40000000e-01	1.000	 35	 0	
 378	 2.28650346e+01	 4.15727901e+00	-4.40000000e-01	1.000	 35	 0	
 379	 2.39043543e+01	 4.15727901e+00	-4.40000000e-01	1.000	 35	 0	
 380	 2.49436741e+01	 4.15727901e+00	-4.40000000e-01	1.000	 35	 0	
 381	 2.59829938e+01	 4.15727901e+00	-4.40000000e-01	1.000	 35	 0	
 382	 2.70223136e+01	 4.15727901e+00	-4.40000000e-01	1.000	 35	 0	
 383	 2.80616333e+01	 4.15727901e+00	-4.40000000e-01	1.000	 35	 0	
 384	 2.91009531e+01	 4.15727901e+00	-4.40000000e-01	1.000	 35	 0	
 385	 3.01402728e+01	 4.15727901e+00	-4.40000000e-01	1.000	 35	 0	
 386	 3.11795926e+01	 4.15727901e+00	-4.40000000e-01	1.000	 35	 0	
 387	 3.22189123e+01	 4.15727901e+00	-4.40000000e-01	1.000	 35	 0	
 388	 3.32582321e+01	 4.15727901e+00	-4.40000000e-01	1.000	 35	 0	
 389	 3.42975518e+01	 4.15727901e+00	-4.40000000e-01	1.000	 35	 0	
 390	 3.53368716e+01	 4.15727901e+00	-4.40000000e-01	1.000	 35	 0	
 391	 3.63761914e+01	 4.15727901e+00	-4.40000000e-01	1.000	 35	 0	
 392	 3.74155111e+01	 4.15727901e+00	-4.40000000e-01	1.000	 35	 0	
 393	 3.84548309e+01	 4.15727901e+00	-4.40000000e-01	1.000	 35	 0	
 394	 3.94941506e+01	 4.15727901e+00	-4.40000000e-01	1.000	 35	 0	
 395	 4.05334704e+01	 4.15727901e+00	-4.40000000e-01	1.000	 35	 0	
 396	 4.15727901e+01	 4.15727901e+00	-4.40000000e-01	1.000	 35	 0	
 397	 4.26121099e+01	 4.15727901e+00	-4.40000000e-01	1.000	 35	 0	
 398	 4.36514296e+01	 4.15727901e+00	-4.40000000e-01	1.000	 35	 0	
 399	 4.46907494e+01	 4.15727901e+00	-4.40000000e-01	1.000	 35	 0	
 400	 4.57300691e+01	 4.15727901e+00	-4.40000000e-01	1.000	 35	 0	
 401	-4.57300691e+01	 4.15727901e+00	-4.40000000e-01	1.000	 35	 0	
 402	-4.46907494e+01	 4.15727901e+00	-4.40000000e-01	1.000	 35	 0	
 403	-4.36514296e+01	 4.15727901e+00	-4.40000000e-01	1.000	 35	 0	
 404	-4.26121099e+01	 4.15727901e+00	-4.40000000e-01	1.000	 35	 0	
 405	-4.15727901e+01	 4.15727901e+00	-4.40000000e-01	1.000	 35	 0	
 406	-4.05334704e+01	 4.15727901e+00	-4.40000000e-01	1.000	 35	 0	
 407	-3.94941506e+01	 4.15727901e+00	-4.40000000e-01	1.000	 35	 0	
 408	-3.84548309e+01	 4.15727901e+00	-4.40000000e-01	1.000	 35	 0	
 409	-3.74155111e+01	 4.15727901e+00	-4.40000000e-01	1.000	 35	 0	
 410	-3.63761914e+01	 4.15727901e+00	-4.40000000e-01	1.000	 35	 0	
 411	-3.53368716e+01	 4.15727901e+00	-4.40000000e-01	1.000	 35	 0	
 412	-3.42975518e+01	 4.15727901e+00	-4.40000000e-01	1.000	 35	 0	
 413	-3.32582321e+01	 4.15727901e+00	-4.40000000e-01	1.000	 35	 0	
 414	-3.22189123e+01	 4.15727901e+00	-4.40000000e-01	1.000	 35	 0	
 415	-3.11795926e+01	 4.15727901e+00	-4.40000000e-01	1.000	 35	 0	
 416	-3.01402728e+01	 4.15727901e+00	-4.40000000e-01	1.000	 35	 0	
 417	-2.91009531e+01	 4.15727901e+00	-4.40000000e-01	1.000	 35	 0	
 418	-2.80616333e+01	 4.15727901e+00	-4.40000000e-01	1.000	 35	 0	
 419	-2.70223136e+01	 4.15727901e+00	-4.40000000e-01	1.000	 35	 0	
 420	-2.59829938e+01	 4.15727901e+00	-4.40000000e-01	1.000	 35	 0	
 421	-2.49436741e+01	 4.15727901e+00	-4.40000000e-01	1.000	 35	 0	
 422	-2.39043543e+01	 4.15727901e+00	-4.40000000e-01	1.000	 35	 0	
 423	-2.28650346e+01	 4.15727901e+00	-4.40000000e-01	1.000	 35	 0	
 424	-2.18257148e+01	 4.15727901e+00	-4.40000000e-01	1.000	 35	 0	
 425	-2.07863951e+01	 4.15727901e+00	-4.40000000e-01	1.000	 35	 0	
 426	-1.97470753e+01	 4.15727901e+00	-4.40000000e-01	1.000	 35	 0	
 427	-1.87077556e+01	 4.15727901e+00	-4.40000000e-01	1.000	 35	 0	
 428	-1.76684358e+01	 4.15727901e+00	-4.40000000e-01	1.000	 35	 0	
 429	-1.66291160e+01	 4.15727901e+00	-4.40000000e-01	1.000	 35	 0	
 430	-1.55897963e+01	 4.15727901e+00	-4.40000000e-01	1.000	 35	 0	
 431	-1.45504765e+01	 4.15727901e+00	-4.40000000e-01	1.000	 35	 0	
 432	-1.35111568e+01	 4.15727901e+00	-4.40000000e-01	1.000	 35	 0	
 433	-1.24718370e+01	 4.15727901e+00	-4.40000000e-01	1.000	 35	 0	
 434	-1.14325173e+01	 4.15727901e+00	-4.40000000e-01	1.000	 35	 0	
 435	-1.03931975e+01	 4.15727901e+00	-4.40000000e-01	1.000	 35	 0	
 436	-9.35387778e+00	 4.15727901e+00	-4.40000000e-01	1.000	 35	 0	
 437	-8.31455802e+00	 4.15727901e+00	-4.40000000e-01	1.000	 35	 0	
 438	-7.27523827e+00	 4.15727901e+00	-4.40000000e-01	1.000	 35	 0	
 439	-6.23591852e+00	 4.15727901e+00	-4.40000000e-01	1.000	 35	 0	
 440	-5.19659876e+00	 4.15727901e+00	-4.40000000e-01	1.000	 35	 0	
 441	-4.15727901e+00	 4.15727901e+00	-4.40000000e-01	1.000	 35	 0	
 442	-3.11795926e+00	 4.15727901e+00	-4.40000000e-01	1.000	 35	 0	
 443	-2.07863951e+00	 4.15727901e+00	-4.40000000e-01	1.000	 35	 0	
 444	-1.03931975e+00	 4.15727901e+00	-4.40000000e-01	1.000	 35	 0	