ITEM: TIMESTEP
0
ITEM: BOX BOUNDS pp pp ff
-4.60208044e+01	 4.60208044e+01	
-4.60208044e+01	 4.60208044e+01	
-1.10000000e+00	 1.10000000e+00	
ITEM: NUMBER OF ATOMS
15842
ITEM: ATOMS index x y z diameter charge species
   0	 0.00000000e+00	 0.00000000e+00	-4.40000000e-01	1.000	 35	 0	
   1	 1.03417538e+00	 0.00000000e+00	-4.40000000e-01	1.000	 35	 0	
   2	 2.06835076e+00	 0.00000000e+00	-4.40000000e-01	1.000	 35	 0	
   3	 3.10252614e+00	 0.00000000e+00	-4.40000000e-01	1.000	 35	 0	
   4	 4.13670152e+00	 0.00000000e+00	-4.40000000e-01	1.000	 35	 0	
   5	 5.17087690e+00	 0.00000000e+00	-4.40000000e-01	1.000	 35	 0	
   6	 6.20505228e+00	 0.00000000e+00	-4.40000000e-01	1.000	 35	 0	
   7	 7.23922766e+00	 0.00000000e+00	-4.40000000e-01	1.000	 35	 0	
   8	 8.27340304e+00	 0.00000000e+00	-4.40000000e-01	1.000	 35	 0	
   9	 9.30757842e+00	 0.00000000e+00	-4.40000000e-01	1.000	 35	 0	
  10	 1.03417538e+01	 0.00000000e+00	-4.40000000e-01	1.000	 35	 0	
  11	 1.13759292e+01	 0.00000000e+00	-4.40000000e-01	1.000	 35	 0	
  12	 1.24101046e+01	 0.00000000e+00	-4.40000000e-01	1.000	 35	 0	
  13	 1.34442799e+01	 0.00000000e+00	-4.40000000e-01	1.000	 35	 0	
  14	 1.44784553e+01	 0.00000000e+00	-4.40000000e-01	1.000	 35	 0	
  15	 1.55126307e+01	 0.00000000e+00	-4.40000000e-01	1.000	 35	 0	
  16	 1.65468061e+01	 0.00000000e+00	-4.40000000e-01	1.000	 35	 0	
  17	 1.75809815e+01	 0.00000000e+00	-4.40000000e-01	1.000	 35	 0	
  18	 1.86151568e+01	 0.00000000e+00	-4.40000000e-01	1.000	 35	 0	
  19	 1.96493322e+01	 0.00000000e+00	-4.40000000e-01	1.000	 35	 0	
  20	 2.06835076e+01	 0.00000000e+00	-4.40000000e-01	1.000	 35	 0	
  21	 2.17176830e+01	 0.00000000e+00	-4.40000000e-01	1.000	 35	 0	
  22	 2.27518584e+01	 0.00000000e+00	-4.40000000e-01	1.000	 35	 0	
  23	 2.37860337e+01	 0.00000000e+00	-4.40000000e-01	1.000	 35	 0	
  24	 2.48202091e+01	 0.00000000e+00	-4.40000000e-01	1.000	 35	 0	
  25	 2.58543845e+01	 0.00000000e+00	-4.40000000e-01	1.000	 35	 0	
  26	 2.68885599e+01	 0.00000000e+00	-4.40000000e-01	1.000	 35	 0	
  27	 2.79227353e+01	 0.00000000e+00	-4.40000000e-01	1.000	 35	 0	
  28	 2.89569106e+01	 0.00000000e+00	-4.40000000e-01	1.000	 35	 0	
  29	 2.99910860e+01	 0.00000000e+00	-4.40000000e-01	1.000	 35	 0	
  30	 3.10252614e+01	 0.00000000e+00	-4.40000000e-01	1.000	 35	 0	
  31	 3.20594368e+01	 0.00000000e+00	-4.40000000e-01	1.000	 35	 0	
  32	 3.30936122e+01	 0.00000000e+00	-4.40000000e-01	1.000	 35	 0	
  33	 3.41277875e+01	 0.00000000e+00	-4.40000000e-01	1.000	 35	 0	
  34	 3.51619629e+01	 0.00000000e+00	-4.40000000e-01	1.000	 35	 0	
  35	 3.61961383e+01	 0.00000000e+00	-4.40000000e-01	1.000	 35	 0	
  36	 3.72303137e+01	 0.00000000e+00	-4.40000000e-01	1.000	 35	 0	
  37	 3.82644891e+01	 0.00000000e+00	-4.40000000e-01	1.000	 35	 0	
  38	 3.92986644e+01	 0.00000000e+00	-4.40000000e-01	1.000	 35	 0	
  39	 4.03328398e+01	 0.00000000e+00	-4.40000000e-01	1.000	 35	 0	
  40	 4.13670152e+01	 0.00000000e+00	-4.40000000e-01	1.000	 35	 0	
  41	 4.24011906e+01	 0.00000000e+00	-4.40000000e-01	1.000	 35	 0	
  42	 4.34353660e+01	 0.00000000e+00	-4.40000000e-01	1.000	 35	 0	
  43	 4.44695413e+01	 0.00000000e+00	-4.40000000e-01	1.000	 35	 0	
  44	 4.55037167e+01	 0.00000000e+00	-4.40000000e-01	1.000	 35	 0	
  45	 4.65378921e+01	 0.00000000e+00	-4.40000000e-01	1.000	 35	 0	
  46	 4.75720675e+01	 0.00000000e+00	-4.40000000e-01	1.000	 35	 0	
  47	 4.86062429e+01	 0.00000000e+00	-4.40000000e-01	1.000	 35	 0	
  48	 4.96404182e+01	 0.00000000e+00	-4.40000000e-01	1.000	 35	 0	
  49	 5.06745936e+01	 0.00000000e+00	-4.40000000e-01	1.000	 35	 0	
  50	 5.17087690e+01	 0.00000000e+00	-4.40000000e-01	1.000	 35	 0	
  51	 5.27429444e+01	 0.00000000e+00	-4.40000000e-01	1.000	 35	 0	
  52	 5.37771198e+01	 0.00000000e+00	-4.40000000e-01	1.000	 35	 0	
  53	 5.48112951e+01	 0.00000000e+00	-4.40000000e-01	1.000	 35	 0	
  54	 5.58454705e+01	 0.00000000e+00	-4.40000000e-01	1.000	 35	 0	
  55	 5.68796459e+01	 0.00000000e+00	-4.40000000e-01	1.000	 35	 0	
  56	 5.79138213e+01	 0.00000000e+00	-4.40000000e-01	1.000	 35	 0	
  57	 5.89479967e+01	 0.00000000e+00	-4.40000000e-01	1.000	 35	 0	
  58	 5.99821720e+01	 0.00000000e+00	-4.40000000e-01	1.000	 35	 0	
  59	 6.10163474e+01	 0.00000000e+00	-4.40000000e-01	1.000	 35	 0	
  60	 6.20505228e+01	 0.00000000e+00	-4.40000000e-01	1.000	 35	 0	
  61	 6.30846982e+01	 0.00000000e+00	-4.40000000e-01	1.000	 35	 0	
  62	 6.41188736e+01	 0.00000000e+00	-4.40000000e-01	1.000	 35	 0	
  63	 6.51530489e+01	 0.00000000e+00	-4.40000000e-01	1.000	 35	 0	
  64	 6.61872243e+01	 0.00000000e+00	-4.40000000e-01	1.000	 35	 0	
  65	 6.72213997e+01	 0.00000000e+00	-4.40000000e-01	1.000	 35	 0	
  66	 6.82555751e+01	 0.00000000e+00	-4.40000000e-01	1.000	 35	 0	
  67	 6.92897505e+01	 0.00000000e+00	-4.40000000e-01	1.000	 35	 0	
  68	 7.03239258e+01	 0.00000000e+00	-4.40000000e-01	1.000	 35	 0	
  69	 7.13581012e+01	 0.00000000e+00	-4.40000000e-01	1.000	 35	 0	
  70	 7.23922766e+01	 0.00000000e+00	-4.40000000e-01	1.000	 35	 0	
  71	 7.34264520e+01	 0.00000000e+00	-4.40000000e-01	1.000	 35	 0	
  72	 7.44606274e+01	 0.00000000e+00	-4.40000000e-01	1.000	 35	 0	
  73	 7.54948027e+01	 0.00000000e+00	-4.40000000e-01	1.000	 35	 0	
  74	 7.65289781e+01	 0.00000000e+00	-4.40000000e-01	1.000	 35	 0	
  75	 7.75631535e+01	 0.00000000e+00	-4.40000000e-01	1.000	 35	 0	
  76	 7.85973289e+01	 0.00000000e+00	-4.40000000e-01	1.000	 35	 0	
  77	 7.96315043e+01	 0.00000000e+00	-4.40000000e-01	1.000	 35	 0	
  78	 8.06656796e+01	 0.00000000e+00	-4.40000000e-01	1.000	 35	 0	
  79	 8.16998550e+01	 0.00000000e+00	-4.40000000e-01	1.000	 35	 0	
  80	 8.27340304e+01	 0.00000000e+00	-4.40000000e-01	1.000	 35	 0	
  81	 8.37682058e+01	 0.00000000e+00	-4.40000000e-01	1.000	 35	 0	
  82	 8.48023812e+01	 0.00000000e+00	-4.40000000e-01	1.000	 35	 0	
  83	 8.58365565e+01	 0.00000000e+00	-4.40000000e-01	1.000	 35	 0	
  84	 8.68707319e+01	 0.00000000e+00	-4.40000000e-01	1.000	 35	 0	
  85	 8.79049073e+01	 0.00000000e+00	-4.40000000e-01	1.000	 35	 0	
  86	 8.89390827e+01	 0.00000000e+00	-4.40000000e-01	1.000	 35	 0	
  87	 8.99732581e+01	 0.00000000e+00	-4.40000000e-01	1.000	 35	 0	
  88	 9.10074334e+01	 0.00000000e+00	-4.40000000e-01	1.000	 35	 0	
  89	 0.00000000e+00	 1.03417538e+00	-4.40000000e-01	1.000	 35	 0	
  90	 1.03417538e+00	 1.03417538e+00	-4.40000000e-01	1.000	 35	 0	
  91	 2.06835076e+00	 1.03417538e+00	-4.40000000e-01	1.000	 35	 0	
  92	 3.10252614e+00	 1.03417538e+00	-4.40000000e-01	1.000	 35	 0	
  93	 4.13670152e+00	 1.03417538e+00	-4.40000000e-01	1.000	 35	 0	
  94	 5.17087690e+00	 1.03417538e+00	-4.40000000e-01	1.000	 35	 0	
  95	 6.20505228e+00	 1.03417538e+00	-4.40000000e-01	1.000	 35	 0	
  96	 7.23922766e+00	 1.03417538e+00	-4.40000000e-01	1.000	 35	 0	
  97	 8.27340304e+00	 1.03417538e+00	-4.40000000e-01	1.000	 35	 0	
  98	 9.30757842e+00	 1.03417538e+00	-4.40000000e-01	1.000	 35	 0	
  99	 1.03417538e+01	 1.03417538e+00	-4.40000000e-01	1.000	 35	 0	
 100	 1.13759292e+01	 1.03417538e+00	-4.40000000e-01	1.000	 35	 0	
 101	 1.24101046e+01	 1.03417538e+00	-4.40000000e-01	1.000	 35	 0	
 102	 1.34442799e+01	 1.03417538e+00	-4.40000000e-01	1.000	 35	 0	
 103	 1.44784553e+01	 1.03417538e+00	-4.40000000e-01	1.000	 35	 0	
 104	 1.55126307e+01	 1.03417538e+00	-4.40000000e-01	1.000	 35	 0	
 105	 1.65468061e+01	 1.03417538e+00	-4.40000000e-01	1.000	 35	 0	
 106	 1.75809815e+01	 1.03417538e+00	-4.40000000e-01	1.000	 35	 0	
 107	 1.86151568e+01	 1.03417538e+00	-4.40000000e-01	1.000	 35	 0	
 108	 1.96493322e+01	 1.03417538e+00	-4.40000000e-01	1.000	 35	 0	
 109	 2.06835076e+01	 1.03417538e+00	-4.40000000e-01	1.000	 35	 0	
 110	 2.17176830e+01	 1.03417538e+00	-4.40000000e-01	1.000	 35	 0	
 111	 2.27518584e+01	 1.03417538e+00	-4.40000000e-01	1.000	 35	 0	
 112	 2.37860337e+01	 1.03417538e+00	-4.40000000e-01	1.000	 35	 0	
 113	 2.48202091e+01	 1.03417538e+00	-4.40000000e-01	1.000	 35	 0	
 114	 2.58543845e+01	 1.03417538e+00	-4.40000000e-01	1.000	 35	 0	
 115	 2.68885599e+01	 1.03417538e+00	-4.40000000e-01	1.000	 35	 0	
 116	 2.79227353e+01	 1.03417538e+00	-4.40000000e-01	1.000	 35	 0	
 117	 2.89569106e+01	 1.03417538e+00	-4.40000000e-01	1.000	 35	 0	
 118	 2.99910860e+01	 1.03417538e+00	-4.40000000e-01	1.000	 35	 0	
 119	 3.10252614e+01	 1.03417538e+00	-4.40000000e-01	1.000	 35	 0	
 120	 3.20594368e+01	 1.03417538e+00	-4.40000000e-01	1.000	 35	 0	
 121	 3.30936122e+01	 1.03417538e+00	-4.40000000e-01	1.000	 35	 0	
 122	 3.41277875e+01	 1.03417538e+00	-4.40000000e-01	1.000	 35	 0	
 123	 3.51619629e+01	 1.03417538e+00	-4.40000000e-01	1.000	 35	 0	
 124	 3.61961383e+01	 1.03417538e+00	-4.40000000e-01	1.000	 35	 0	
 125	 3.72303137e+01	 1.03417538e+00	-4.40000000e-01	1.000	 35	 0	
 126	 3.82644891e+01	 1.03417538e+00	-4.40000000e-01	1.000	 35	 0	
 127	 3.92986644e+01	 1.03417538e+00	-4.40000000e-01	1.000	 35	 0	
 128	 4.03328398e+01	 1.03417538e+00	-4.40000000e-01	1.000	 35	 0	
 129	 4.13670152e+01	 1.03417538e+00	-4.40000000e-01	1.000	 35	 0	
 130	 4.24011906e+01	 1.03417538e+00	-4.40000000e-01	1.000	 35	 0	
 131	 4.34353660e+01	 1.03417538e+00	-4.40000000e-01	1.000	 35	 0	
 132	 4.44695413e+01	 1.03417538e+00	-4.40000000e-01	1.000	 35	 0	
 133	 4.55037167e+01	 1.03417538e+00	-4.40000000e-01	1.000	 35	 0	
 134	 4.65378921e+01	 1.03417538e+00	-4.40000000e-01	1.000	 35	 0	
 135	 4.75720675e+01	 1.03417538e+00	-4.40000000e-01	1.000	 35	 0	
 136	 4.86062429e+01	 1.03417538e+00	-4.40000000e-01	1.000	 35	 0	
 137	 4.96404182e+01	 1.03417538e+00	-4.40000000e-01	1.000	 35	 0	
 138	 5.06745936e+01	 1.03417538e+00	-4.40000000e-01	1.000	 35	 0	
 139	 5.17087690e+01	 1.03417538e+00	-4.40000000e-01	1.000	 35	 0	
 140	 5.27429444e+01	 1.03417538e+00	-4.40000000e-01	1.000	 35	 0	
 141	 5.37771198e+01	 1.03417538e+00	-4.40000000e-01	1.000	 35	 0	
 142	 5.48112951e+01	 1.03417538e+00	-4.40000000e-01	1.000	 35	 0	
 143	 5.58454705e+01	 1.03417538e+00	-4.40000000e-01	1.000	 35	 0	
 144	 5.68796459e+01	 1.03417538e+00	-4.40000000e-01	1.000	 35	 0	
 145	 5.79138213e+01	 1.03417538e+00	-4.40000000e-01	1.000	 35	 0	
 146	 5.89479967e+01	 1.03417538e+00	-4.40000000e-01	1.000	 35	 0	
 147	 5.99821720e+01	 1.03417538e+00	-4.40000000e-01	1.000	 35	 0	
 148	 6.10163474e+01	 1.03417538e+00	-4.40000000e-01	1.000	 35	 0	
 149	 6.20505228e+01	 1.03417538e+00	-4.40000000e-01	1.000	 35	 0	
 150	 6.30846982e+01	 1.03417538e+00	-4.40000000e-01	1.000	 35	 0	
 151	 6.41188736e+01	 1.03417538e+00	-4.40000000e-01	1.000	 35	 0	
 152	 6.51530489e+01	 1.03417538e+00	-4.40000000e-01	1.000	 35	 0	
 153	 6.61872243e+01	 1.03417538e+00	-4.40000000e-01	1.000	 35	 0	
 154	 6.72213997e+01	 1.03417538e+00	-4.40000000e-01	1.000	 35	 0	
 155	 6.82555751e+01	 1.03417538e+00	-4.40000000e-01	1.000	 35	 0	
 156	 6.92897505e+01	 1.03417538e+00	-4.40000000e-01	1.000	 35	 0	
 157	 7.03239258e+01	 1.03417538e+00	-4.40000000e-01	1.000	 35	 0	
 158	 7.13581012e+01	 1.03417538e+00	-4.40000000e-01	1.000	 35	 0	
 159	 7.23922766e+01	 1.03417538e+00	-4.40000000e-01	1.000	 35	 0	
 160	 7.34264520e+01	 1.03417538e+00	-4.40000000e-01	1.000	 35	 0	
 161	 7.44606274e+01	 1.03417538e+00	-4.40000000e-01	1.000	 35	 0	
 162	 7.54948027e+01	 1.03417538e+00	-4.40000000e-01	1.000	 35	 0	
 163	 7.65289781e+01	 1.03417538e+00	-4.40000000e-01	1.000	 35	 0	
 164	 7.75631535e+01	 1.03417538e+00	-4.40000000e-01	1.000	 35	 0	
 165	 7.85973289e+01	 1.03417538e+00	-4.40000000e-01	1.000	 35	 0	
 166	 7.96315043e+01	 1.03417538e+00	-4.40000000e-01	1.000	 35	 0	
 167	 8.06656796e+01	 1.03417538e+00	-4.40000000e-01	1.000	 35	 0	
 168	 8.16998550e+01	 1.03417538e+00	-4.40000000e-01	1.000	 35	 0	
 169	 8.27340304e+01	 1.03417538e+00	-4.40000000e-01	1.000	 35	 0	
 170	 8.37682058e+01	 1.03417538e+00	-4.40000000e-01	1.000	 35	 0	
 171	 8.48023812e+01	 1.03417538e+00	-4.40000000e-01	1.000	 35	 0	
 172	 8.58365565e+01	 1.03417538e+00	-4.40000000e-01	1.000	 35	 0	
 173	 8.68707319e+01	 1.03417538e+00	-4.40000000e-01	1.000	 35	 0	
 174	 8.79049073e+01	 1.03417538e+00	-4.40000000e-01	1.000	 35	 0	
 175	 8.89390827e+01	 1.03417538e+00	-4.40000000e-01	1.000	 35	 0	
 176	 8.99732581e+01	 1.03417538e+00	-4.40000000e-01	1.000	 35	 0	
 177	 9.10074334e+01	 1.03417538e+00	-4.40000000e-01	1.000	 35	 0	
 178	 0.00000000e+00	 2.06835076e+00	-4.40000000e-01	1.000	 35	 0	
 179	 1.03417538e+00	 2.06835076e+00	-4.40000000e-01	1.000	 35	 0	
 180	 2.06835076e+00	 2.06835076e+00	-4.40000000e-01	1.000	 35	 0	
 181	 3.10252614e+00	 2.06835076e+00	-4.40000000e-01	1.000	 35	 0	
 182	 4.13670152e+00	 2.06835076e+00	-4.40000000e-01	1.000	 35	 0	
 183	 5.17087690e+00	 2.06835076e+00	-4.40000000e-01	1.000	 35	 0	
 184	 6.20505228e+00	 2.06835076e+00	-4.40000000e-01	1.000	 35	 0	
 185	 7.23922766e+00	 2.06835076e+00	-4.40000000e-01	1.000	 35	 0	
 186	 8.27340304e+00	 2.06835076e+00	-4.40000000e-01	1.000	 35	 0	
 187	 9.30757842e+00	 2.06835076e+00	-4.40000000e-01	1.000	 35	 0	
 188	 1.03417538e+01	 2.06835076e+00	-4.40000000e-01	1.000	 35	 0	
 189	 1.13759292e+01	 2.06835076e+00	-4.40000000e-01	1.000	 35	 0	
 190	 1.24101046e+01	 2.06835076e+00	-4.40000000e-01	1.000	 35	 0	
 191	 1.34442799e+01	 2.06835076e+00	-4.40000000e-01	1.000	 35	 0	
 192	 1.44784553e+01	 2.06835076e+00	-4.40000000e-01	1.000	 35	 0	
 193	 1.55126307e+01	 2.06835076e+00	-4.40000000e-01	1.000	 35	 0	
 194	 1.65468061e+01	 2.06835076e+00	-4.40000000e-01	1.000	 35	 0	
 195	 1.75809815e+01	 2.06835076e+00	-4.40000000e-01	1.000	 35	 0	
 196	 1.86151568e+01	 2.06835076e+00	-4.40000000e-01	1.000	 35	 0	
 197	 1.96493322e+01	 2.06835076e+00	-4.40000000e-01	1.000	 35	 0	
 198	 2.06835076e+01	 2.06835076e+00	-4.40000000e-01	1.000	 35	 0	
 199	 2.17176830e+01	 2.06835076e+00	-4.40000000e-01	1.000	 35	 0	
 200	 2.27518584e+01	 2.06835076e+00	-4.40000000e-01	1.000	 35	 0	
 201	 2.37860337e+01	 2.06835076e+00	-4.40000000e-01	1.000	 35	 0	
 202	 2.48202091e+01	 2.06835076e+00	-4.40000000e-01	1.000	 35	 0	
 203	 2.58543845e+01	 2.06835076e+00	-4.40000000e-01	1.000	 35	 0	
 204	 2.68885599e+01	 2.06835076e+00	-4.40000000e-01	1.000	 35	 0	
 205	 2.79227353e+01	 2.06835076e+00	-4.40000000e-01	1.000	 35	 0	
 206	 2.89569106e+01	 2.06835076e+00	-4.40000000e-01	1.000	 35	 0	
 207	 2.99910860e+01	 2.06835076e+00	-4.40000000e-01	1.000	 35	 0	
 208	 3.10252614e+01	 2.06835076e+00	-4.40000000e-01	1.000	 35	 0	
 209	 3.20594368e+01	 2.06835076e+00	-4.40000000e-01	1.000	 35	 0	
 210	 3.30936122e+01	 2.06835076e+00	-4.40000000e-01	1.000	 35	 0	
 211	 3.41277875e+01	 2.06835076e+00	-4.40000000e-01	1.000	 35	 0	
 212	 3.51619629e+01	 2.06835076e+00	-4.40000000e-01	1.000	 35	 0	
 213	 3.61961383e+01	 2.06835076e+00	-4.40000000e-01	1.000	 35	 0	
 214	 3.72303137e+01	 2.06835076e+00	-4.40000000e-01	1.000	 35	 0	
 215	 3.82644891e+01	 2.06835076e+00	-4.40000000e-01	1.000	 35	 0	
 216	 3.92986644e+01	 2.06835076e+00	-4.40000000e-01	1.000	 35	 0	
 217	 4.03328398e+01	 2.06835076e+00	-4.40000000e-01	1.000	 35	 0	
 218	 4.13670152e+01	 2.06835076e+00	-4.40000000e-01	1.000	 35	 0	
 219	 4.24011906e+01	 2.06835076e+00	-4.40000000e-01	1.000	 35	 0	
 220	 4.34353660e+01	 2.06835076e+00	-4.40000000e-01	1.000	 35	 0	
 221	 4.44695413e+01	 2.06835076e+00	-4.40000000e-01	1.000	 35	 0	
 222	 4.55037167e+01	 2.06835076e+00	-4.40000000e-01	1.000	 35	 0	
 223	 4.65378921e+01	 2.06835076e+00	-4.40000000e-01	1.000	 35	 0	
 224	 4.75720675e+01	 2.06835076e+00	-4.40000000e-01	1.000	 35	 0	
 225	 4.86062429e+01	 2.06835076e+00	-4.40000000e-01	1.000	 35	 0	
 226	 4.96404182e+01	 2.06835076e+00	-4.40000000e-01	1.000	 35	 0	
 227	 5.06745936e+01	 2.06835076e+00	-4.40000000e-01	1.000	 35	 0	
 228	 5.17087690e+01	 2.06835076e+00	-4.40000000e-01	1.000	 35	 0	
 229	 5.27429444e+01	 2.06835076e+00	-4.40000000e-01	1.000	 35	 0	
 230	 5.37771198e+01	 2.06835076e+00	-4.40000000e-01	1.000	 35	 0	
 231	 5.48112951e+01	 2.06835076e+00	-4.40000000e-01	1.000	 35	 0	
 232	 5.58454705e+01	 2.06835076e+00	-4.40000000e-01	1.000	 35	 0	
 233	 5.68796459e+01	 2.06835076e+00	-4.40000000e-01	1.000	 35	 0	
 234	 5.79138213e+01	 2.06835076e+00	-4.40000000e-01	1.000	 35	 0	
 235	 5.89479967e+01	 2.06835076e+00	-4.40000000e-01	1.000	 35	 0	
 236	 5.99821720e+01	 2.06835076e+00	-4.40000000e-01	1.000	 35	 0	
 237	 6.10163474e+01	 2.06835076e+00	-4.40000000e-01	1.000	 35	 0	
 238	 6.20505228e+01	 2.06835076e+00	-4.40000000e-01	1.000	 35	 0	
 239	 6.30846982e+01	 2.06835076e+00	-4.40000000e-01	1.000	 35	 0	
 240	 6.41188736e+01	 2.06835076e+00	-4.40000000e-01	1.000	 35	 0	
 241	 6.51530489e+01	 2.06835076e+00	-4.40000000e-01	1.000	 35	 0	
 242	 6.61872243e+01	 2.06835076e+00	-4.40000000e-01	1.000	 35	 0	
 243	 6.72213997e+01	 2.06835076e+00	-4.40000000e-01	1.000	 35	 0	
 244	 6.82555751e+01	 2.06835076e+00	-4.40000000e-01	1.000	 35	 0	
 245	 6.92897505e+01	 2.06835076e+00	-4.40000000e-01	1.000	 35	 0	
 246	 7.03239258e+01	 2.06835076e+00	-4.40000000e-01	1.000	 35	 0	
 247	 7.13581012e+01	 2.06835076e+00	-4.40000000e-01	1.000	 35	 0	
 248	 7.23922766e+01	 2.06835076e+00	-4.40000000e-01	1.000	 35	 0	
 249	 7.34264520e+01	 2.06835076e+00	-4.40000000e-01	1.000	 35	 0	
 250	 7.44606274e+01	 2.06835076e+00	-4.40000000e-01	1.000	 35	 0	
 251	 7.54948027e+01	 2.06835076e+00	-4.40000000e-01	1.000	 35	 0	
 252	 7.65289781e+01	 2.06835076e+00	-4.40000000e-01	1.000	 35	 0	
 253	 7.75631535e+01	 2.06835076e+00	-4.40000000e-01	1.000	 35	 0	
 254	 7.85973289e+01	 2.06835076e+00	-4.40000000e-01	1.000	 35	 0	
 255	 7.96315043e+01	 2.06835076e+00	-4.40000000e-01	1.000	 35	 0	
 256	 8.06656796e+01	 2.06835076e+00	-4.40000000e-01	1.000	 35	 0	
 257	 8.16998550e+01	 2.06835076e+00	-4.40000000e-01	1.000	 35	 0	
 258	 8.27340304e+01	 2.06835076e+00	-4.40000000e-01	1.000	 35	 0	
 259	 8.37682058e+01	 2.06835076e+00	-4.40000000e-01	1.000	 35	 0	
 260	 8.48023812e+01	 2.06835076e+00	-4.40000000e-01	1.000	 35	 0	
 261	 8.58365565e+01	 2.06835076e+00	-4.40000000e-01	1.000	 35	 0	
 262	 8.68707319e+01	 2.06835076e+00	-4.40000000e-01	1.000	 35	 0	
 263	 8.79049073e+01	 2.06835076e+00	-4.40000000e-01	1.000	 35	 0	
 264	 8.89390827e+01	 2.06835076e+00	-4.40000000e-01	1.000	 35	 0	
 265	 8.99732581e+01	 2.06835076e+00	-4.40000000e-01	1.000	 35	 0	
 266	 9.10074334e+01	 2.06835076e+00	-4.40000000e-01	1.000	 35	 0	
 267	 0.00000000e+00	 3.10252614e+00	-4.40000000e-01	1.000	 35	 0	
 268	 1.03417538e+00	 3.10252614e+00	-4.40000000e-01	1.000	 35	 0	
 269	 2.06835076e+00	 3.10252614e+00	-4.40000000e-01	1.000	 35	 0	
 270	 3.10252614e+00	 3.10252614e+00	-4.40000000e-01	1.000	 35	 0	
 271	 4.13670152e+00	 3.10252614e+00	-4.40000000e-01	1.000	 35	 0	
 272	 5.17087690e+00	 3.10252614e+00	-4.40000000e-01	1.000	 35	 0	
 273	 6.20505228e+00	 3.10252614e+00	-4.40000000e-01	1.000	 35	 0	
 274	 7.23922766e+00	 3.10252614e+00	-4.40000000e-01	1.000	 35	 0	
 275	 8.27340304e+00	 3.10252614e+00	-4.40000000e-01	1.000	 35	 0	
 276	 9.30757842e+00	 3.10252614e+00	-4.40000000e-01	1.000	 35	 0	
 277	 1.03417538e+01	 3.10252614e+00	-4.40000000e-01	1.000	 35	 0	
 278	 1.13759292e+01	 3.10252614e+00	-4.40000000e-01	1.000	 35	 0	
 279	 1.24101046e+01	 3.10252614e+00	-4.40000000e-01	1.000	 35	 0	
 280	 1.34442799e+01	 3.10252614e+00	-4.40000000e-01	1.000	 35	 0	
 281	 1.44784553e+01	 3.10252614e+00	-4.40000000e-01	1.000	 35	 0	
 282	 1.55126307e+01	 3.10252614e+00	-4.40000000e-01	1.000	 35	 0	
 283	 1.65468061e+01	 3.10252614e+00	-4.40000000e-01	1.000	 35	 0	
 284	 1.75809815e+01	 3.10252614e+00	-4.40000000e-01	1.000	 35	 0	
 285	 1.86151568e+01	 3.10252614e+00	-4.40000000e-01	1.000	 35	 0	
 286	 1.96493322e+01	 3.10252614e+00	-4.40000000e-01	1.000	 35	 0	
 287	 2.06835076e+01	 3.10252614e+00	-4.40000000e-01	1.000	 35	 0	
 288	 2.17176830e+01	 3.10252614e+00	-4.40000000e-01	1.000	 35	 0	
 289	 2.27518584e+01	 3.10252614e+00	-4.40000000e-01	1.000	 35	 0	
 290	 2.37860337e+01	 3.10252614e+00	-4.40000000e-01	1.000	 35	 0	
 291	 2.48202091e+01	 3.10252614e+00	-4.40000000e-01	1.000	 35	 0	
 292	 2.58543845e+01	 3.10252614e+00	-4.40000000e-01	1.000	 35	 0	
 293	 2.68885599e+01	 3.10252614e+00	-4.40000000e-01	1.000	 35	 0	
 294	 2.79227353e+01	 3.10252614e+00	-4.40000000e-01	1.000	 35	 0	
 295	 2.89569106e+01	 3.10252614e+00	-4.40000000e-01	1.000	 35	 0	
 296	 2.99910860e+01	 3.10252614e+00	-4.40000000e-01	1.000	 35	 0	
 297	 3.10252614e+01	 3.10252614e+00	-4.40000000e-01	1.000	 35	 0	
 298	 3.20594368e+01	 3.10252614e+00	-4.40000000e-01	1.000	 35	 0	
 299	 3.30936122e+01	 3.10252614e+00	-4.40000000e-01	1.000	 35	 0	
 300	 3.41277875e+01	 3.10252614e+00	-4.40000000e-01	1.000	 35	 0	
 301	 3.51619629e+01	 3.10252614e+00	-4.40000000e-01	1.000	 35	 0	
 302	 3.61961383e+01	 3.10252614e+00	-4.40000000e-01	1.000	 35	 0	
 303	 3.72303137e+01	 3.10252614e+00	-4.40000000e-01	1.000	 35	 0	
 304	 3.82644891e+01	 3.10252614e+00	-4.40000000e-01	1.000	 35	 0	
 305	 3.92986644e+01	 3.10252614e+00	-4.40000000e-01	1.000	 35	 0	
 306	 4.03328398e+01	 3.10252614e+00	-4.40000000e-01	1.000	 35	 0	
 307	 4.13670152e+01	 3.10252614e+00	-4.40000000e-01	1.000	 35	 0	
 308	 4.24011906e+01	 3.10252614e+00	-4.40000000e-01	1.000	 35	 0	
 309	 4.34353660e+01	 3.10252614e+00	-4.40000000e-01	1.000	 35	 0	
 310	 4.44695413e+01	 3.10252614e+00	-4.40000000e-01	1.000	 35	 0	
 311	 4.55037167e+01	 3.10252614e+00	-4.40000000e-01	1.000	 35	 0	
 312	 4.65378921e+01	 3.10252614e+00	-4.40000000e-01	1.000	 35	 0	
 313	 4.75720675e+01	 3.10252614e+00	-4.40000000e-01	1.000	 35	 0	
 314	 4.86062429e+01	 3.10252614e+00	-4.40000000e-01	1.000	 35	 0	
 315	 4.96404182e+01	 3.10252614e+00	-4.40000000e-01	1.000	 35	 0	
 316	 5.06745936e+01	 3.10252614e+00	-4.40000000e-01	1.000	 35	 0	
 317	 5.17087690e+01	 3.10252614e+00	-4.40000000e-01	1.000	 35	 0	
 318	 5.27429444e+01	 3.10252614e+00	-4.40000000e-01	1.000	 35	 0	
 319	 5.37771198e+01	 3.10252614e+00	-4.40000000e-01	1.000	 35	 0	
 320	 5.48112951e+01	 3.10252614e+00	-4.40000000e-01	1.000	 35	 0	
 321	 5.58454705e+01	 3.10252614e+00	-4.40000000e-01	1.000	 35	 0	
 322	 5.68796459e+01	 3.10252614e+00	-4.40000000e-01	1.000	 35	 0	
 323	 5.79138213e+01	 3.10252614e+00	-4.40000000e-01	1.000	 35	 0	
 324	 5.89479967e+01	 3.10252614e+00	-4.40000000e-01	1.000	 35	 0	
 325	 5.99821720e+01	 3.10252614e+00	-4.40000000e-01	1.000	 35	 0	
 326	 6.10163474e+01	 3.10252614e+00	-4.40000000e-01	1.000	 35	 0	
 327	 6.20505228e+01	 3.10252614e+00	-4.40000000e-01	1.000	 35	 0	
 328	 6.30846982e+01	 3.10252614e+00	-4.40000000e-01	1.000	 35	 0	
 329	 6.41188736e+01	 3.10252614e+00	-4.40000000e-01	1.000	 35	 0	
 330	 6.51530489e+01	 3.10252614e+00	-4.40000000e-01	1.000	 35	 0	
 331	 6.61872243e+01	 3.10252614e+00	-4.40000000e-01	1.000	 35	 0	
 332	 6.72213997e+01	 3.10252614e+00	-4.40000000e-01	1.000	 35	 0	
 333	 6.82555751e+01	 3.10252614e+00	-4.40000000e-01	1.000	 35	 0	
 334	 6.92897505e+01	 3.10252614e+00	-4.40000000e-01	1.000	 35	 0	
 335	 7.03239258e+01	 3.10252614e+00	-4.40000000e-01	1.000	 35	 0	
 336	 7.13581012e+01	 3.10252614e+00	-4.40000000e-01	1.000	 35	 0	
 337	 7.23922766e+01	 3.10252614e+00	-4.40000000e-01	1.000	 35	 0	
 338	 7.34264520e+01	 3.10252614e+00	-4.40000000e-01	1.000	 35	 0	
 339	 7.44606274e+01	 3.10252614e+00	-4.40000000e-01	1.000	 35	 0	
 340	 7.54948027e+01	 3.10252614e+00	-4.40000000e-01	1.000	 35	 0	
 341	 7.65289781e+01	 3.10252614e+00	-4.40000000e-01	1.000	 35	 0	
 342	 7.75631535e+01	 3.10252614e+00	-4.40000000e-01	1.000	 35	 0	
 343	 7.85973289e+01	 3.10252614e+00	-4.40000000e-01	1.000	 35	 0	
 344	 7.96315043e+01	 3.10252614e+00	-4.40000000e-01	1.000	 35	 0	
 345	 8.06656796e+01	 3.10252614e+00	-4.40000000e-01	1.000	 35	 0	
 346	 8.16998550e+01	 3.10252614e+00	-4.40000000e-01	1.000	 35	 0	
 347	 8.27340304e+01	 3.10252614e+00	-4.40000000e-01	1.000	 35	 0	
 348	 8.37682058e+01	 3.10252614e+00	-4.40000000e-01	1.000	 35	 0	
 349	 8.48023812e+01	 3.10252614e+00	-4.40000000e-01	1.000	 35	 0	
 350	 8.58365565e+01	 3.10252614e+00	-4.40000000e-01	1.000	 35	 0	
 351	 8.68707319e+01	 3.10252614e+00	-4.40000000e-01	1.000	 35	 0	
 352	 8.79049073e+01	 3.10252614e+00	-4.40000000e-01	1.000	 35	 0	
 353	 8.89390827e+01	 3.10252614e+00	-4.40000000e-01	1.000	 35	 0	
 354	 8.99732581e+01	 3.10252614e+00	-4.40000000e-01	1.000	 35	 0	
 355	 9.10074334e+01	 3.10252614e+00	-4.40000000e-01	1.000	 35	 0	
 356	 0.00000000e+00	 4.13670152e+00	-4.40000000e-01	1.000	 35	 0	
 357	 1.03417538e+00	 4.13670152e+00	-4.40000000e-01	1.000	 35	 0	
 358	 2.06835076e+00	 4.13670152e+00	-4.40000000e-01	1.000	 35	 0	
 359	 3.10252614e+00	 4.13670152e+00	-4.40000000e-01	1.000	 35	 0	
 360	 4.13670152e+00	 4.13670152e+00	-4.40000000e-01	1.000	 35	 0	
 361	 5.17087690e+00	 4.13670152e+00	-4.40000000e-01	1.000	 35	 0	
 362	 6.20505228e+00	 4.13670152e+00	-4.40000000e-01	1.000	 35	 0	
 363	 7.23922766e+00	 4.13670152e+00	-4.40000000e-01	1.000	 35	 0	
 364	 8.27340304e+00	 4.13670152e+00	-4.40000000e-01	1.000	 35	 0	
 365	 9.30757842e+00	 4.13670152e+00	-4.40000000e-01	1.000	 35	 0	
 366	 1.03417538e+01	 4.13670152e+00	-4.40000000e-01	1.000	 35	 0	
 367	 1.13759292e+01	 4.13670152e+00	-4.40000000e-01	1.000	 35	 0	
 368	 1.24101046e+01	 4.13670152e+00	-4.40000000e-01	1.000	 35	 0	
 369	 1.34442799e+01	 4.13670152e+00	-4.40000000e-01	1.000	 35	 0	
 370	 1.44784553e+01	 4.13670152e+00	-4.40000000e-01	1.000	 35	 0	
 371	 1.55126307e+01	 4.13670152e+00	-4.40000000e-01	1.000	 35	 0	
 372	 1.65468061e+01	 4.13670152e+00	-4.40000000e-01	1.000	 35	 0	
 373	 1.75809815e+01	 4.13670152e+00	-4.40000000e-01	1.000	 35	 0	
 374	 1.86151568e+01	 4.13670152e+00	-4.40000000e-01	1.000	 35	 0	
 375	 1.96493322e+01	 4.13670152e+00	-4.40000000e-01	1.000	 35	 0	
 376	 2.06835076e+01	 4.13670152e+00	-4.40000000e-01	1.000	 35	 0	
 377	 2.17176830e+01	 4.13670152e+00	-4.40000000e-01	1.000	 35	 0	
 378	 2.27518584e+01	 4.13670152e+00	-4.40000000e-01	1.000	 35	 0	
 379	 2.37860337e+01	 4.13670152e+00	-4.40000000e-01	1.000	 35	 0	
 380	 2.48202091e+01	 4.13670152e+00	-4.40000000e-01	1.000	 35	 0	
 381	 2.58543845e+01	 4.13670152e+00	-4.40000000e-01	1.000	 35	 0	
 382	 2.68885599e+01	 4.13670152e+00	-4.40000000e-01	1.000	 35	 0	
 383	 2.79227353e+01	 4.13670152e+00	-4.40000000e-01	1.000	 35	 0	
 384	 2.89569106e+01	 4.13670152e+00	-4.40000000e-01	1.000	 35	 0	
 385	 2.99910860e+01	 4.13670152e+00	-4.40000000e-01	1.000	 35	 0	
 386	 3.10252614e+01	 4.13670152e+00	-4.40000000e-01	1.000	 35	 0	
 387	 3.20594368e+01	 4.13670152e+00	-4.40000000e-01	1.000	 35	 0	
 388	 3.30936122e+01	 4.13670152e+00	-4.40000000e-01	1.000	 35	 0	
 389	 3.41277875e+01	 4.13670152e+00	-4.40000000e-01	1.000	 35	 0	
 390	 3.51619629e+01	 4.13670152e+00	-4.40000000e-01	1.000	 35	 0	
 391	 3.61961383e+01	 4.13670152e+00	-4.40000000e-01	1.000	 35	 0	
 392	 3.72303137e+01	 4.13670152e+00	-4.40000000e-01	1.000	 35	 0	
 393	 3.82644891e+01	 4.13670152e+00	-4.40000000e-01	1.000	 35	 0	
 394	 3.92986644e+01	 4.13670152e+00	-4.40000000e-01	1.000	 35	 0	
 395	 4.03328398e+01	 4.13670152e+00	-4.40000000e-01	1.000	 35	 0	
 396	 4.13670152e+01	 4.13670152e+00	-4.40000000e-01	1.000	 35	 0	
 397	 4.24011906e+01	 4.13670152e+00	-4.40000000e-01	1.000	 35	 0	
 398	 4.34353660e+01	 4.13670152e+00	-4.40000000e-01	1.000	 35	 0	
 399	 4.44695413e+01	 4.13670152e+00	-4.40000000e-01	1.000	 35	 0	
 400	 4.55037167e+01	 4.13670152e+00	-4.40000000e-01	1.000	 35	 0	
 401	 4.65378921e+01	 4.13670152e+00	-4.40000000e-01	1.000	 35	 0	
 402	 4.75720675e+01	 4.13670152e+00	-4.40000000e-01	1.000	 35	 0	
 403	 4.86062429e+01	 4.13670152e+00	-4.40000000e-01	1.000	 35	 0	
 404	 4.96404182e+01	 4.13670152e+00	-4.40000000e-01	1.000	 35	 0	
 405	 5.06745936e+01	 4.13670152e+00	-4.40000000e-01	1.000	 35	 0	
 406	 5.17087690e+01	 4.13670152e+00	-4.40000000e-01	1.000	 35	 0	
 407	 5.27429444e+01	 4.13670152e+00	-4.40000000e-01	1.000	 35	 0	
 408	 5.37771198e+01	 4.13670152e+00	-4.40000000e-01	1.000	 35	 0	
 409	 5.48112951e+01	 4.13670152e+00	-4.40000000e-01	1.000	 35	 0	
 410	 5.58454705e+01	 4.13670152e+00	-4.40000000e-01	1.000	 35	 0	
 411	 5.68796459e+01	 4.13670152e+00	-4.40000000e-01	1.000	 35	 0	
 412	 5.79138213e+01	 4.13670152e+00	-4.40000000e-01	1.000	 35	 0	
 413	 5.89479967e+01	 4.13670152e+00	-4.40000000e-01	1.000	 35	 0	
 414	 5.99821720e+01	 4.13670152e+00	-4.40000000e-01	1.000	 35	 0	
 415	 6.10163474e+01	 4.13670152e+00	-4.40000000e-01	1.000	 35	 0	
 416	 6.20505228e+01	 4.13670152e+00	-4.40000000e-01	1.000	 35	 0	
 417	 6.30846982e+01	 4.13670152e+00	-4.40000000e-01	1.000	 35	 0	
 418	 6.41188736e+01	 4.13670152e+00	-4.40000000e-01	1.000	 35	 0	
 419	 6.51530489e+01	 4.13670152e+00	-4.40000000e-01	1.000	 35	 0	
 420	 6.61872243e+01	 4.13670152e+00	-4.40000000e-01	1.000	 35	 0	
 421	 6.72213997e+01	 4.13670152e+00	-4.40000000e-01	1.000	 35	 0	
 422	 6.82555751e+01	 4.13670152e+00	-4.40000000e-01	1.000	 35	 0	
 423	 6.92897505e+01	 4.13670152e+00	-4.40000000e-01	1.000	 35	 0	
 424	 7.03239258e+01	 4.13670152e+00	-4.40000000e-01	1.000	 35	 0	
 425	 7.13581012e+01	 4.13670152e+00	-4.40000000e-01	1.000	 35	 0	
 426	 7.23922766e+01	 4.13670152e+00	-4.40000000e-01	1.000	 35	 0	
 427	 7.34264520e+01	 4.13670152e+00	-4.40000000e-01	1.000	 35	 0	
 428	 7.44606274e+01	 4.13670152e+00	-4.40000000e-01	1.000	 35	 0	
 429	 7.54948027e+01	 4.13670152e+00	-4.40000000e-01	1.000	 35	 0	
 430	 7.65289781e+01	 4.13670152e+00	-4.40000000e-01	1.000	 35	 0	
 431	 7.75631535e+01	 4.13670152e+00	-4.40000000e-01	1.000	 35	 0	
 432	 7.85973289e+01	 4.13670152e+00	-4.40000000e-01	1.000	 35	 0	
 433	 7.96315043e+01	 4.13670152e+00	-4.40000000e-01	1.000	 35	 0	
 434	 8.06656796e+01	 4.13670152e+00	-4.40000000e-01	1.000	 35	 0	
 435	 8.16998550e+01	 4.13670152e+00	-4.40000000e-01	1.000	 35	 0	
 436	 8.27340304e+01	 4.13670152e+00	-4.40000000e-01	1.000	 35	 0	
 437	 8.37682058e+01	 4.13670152e+00	-4.40000000e-01	1.000	 35	 0	
 438	 8.48023812e+01	 4.13670152e+00	-4.40000000e-01	1.000	 35	 0	
 439	 8.58365565e+01	 4.13670152e+00	-4.40000000e-01	1.000	 35	 0	
 440	 8.68707319e+01	 4.13670152e+00	-4.40000000e-01	1.000	 35	 0	
 441	 8.79049073e+01	 4.13670152e+00	-4.40000000e-01	1.000	 35	 0	
 442	 8.89390827e+01	 4.13670152e+00	-4.40000000e-01	1.000	 35	 0	
 443	 8.99732581e+01	 4.13670152e+00	-4.40000000e-01	1.000	 35	 0	