ITEM: TIMESTEP
0
ITEM: BOX BOUNDS xx yy zz
-11.89302	 11.89302	
-11.89302	 11.89302	
-1.10000	 1.10000	
ITEM: NUMBER OF ATOMS
1058
ITEM: ATOMS index x y z diameter charge species
   0	 0.00000000e+00	 0.00000000e+00	-4.40000000e-01	1.000	 35	 0	
   1	 1.03417538e+00	 0.00000000e+00	-4.40000000e-01	1.000	 35	 0	
   2	 2.06835076e+00	 0.00000000e+00	-4.40000000e-01	1.000	 35	 0	
   3	 3.10252614e+00	 0.00000000e+00	-4.40000000e-01	1.000	 35	 0	
   4	 4.13670152e+00	 0.00000000e+00	-4.40000000e-01	1.000	 35	 0	
   5	 5.17087690e+00	 0.00000000e+00	-4.40000000e-01	1.000	 35	 0	
   6	 6.20505228e+00	 0.00000000e+00	-4.40000000e-01	1.000	 35	 0	
   7	 7.23922766e+00	 0.00000000e+00	-4.40000000e-01	1.000	 35	 0	
   8	 8.27340304e+00	 0.00000000e+00	-4.40000000e-01	1.000	 35	 0	
   9	 9.30757842e+00	 0.00000000e+00	-4.40000000e-01	1.000	 35	 0	
  10	 1.03417538e+01	 0.00000000e+00	-4.40000000e-01	1.000	 35	 0	
  11	 1.13759292e+01	 0.00000000e+00	-4.40000000e-01	1.000	 35	 0	
  12	-1.13759292e+01	 0.00000000e+00	-4.40000000e-01	1.000	 35	 0	
  13	-1.03417538e+01	 0.00000000e+00	-4.40000000e-01	1.000	 35	 0	
  14	-9.30757842e+00	 0.00000000e+00	-4.40000000e-01	1.000	 35	 0	
  15	-8.27340304e+00	 0.00000000e+00	-4.40000000e-01	1.000	 35	 0	
  16	-7.23922766e+00	 0.00000000e+00	-4.40000000e-01	1.000	 35	 0	
  17	-6.20505228e+00	 0.00000000e+00	-4.40000000e-01	1.000	 35	 0	
  18	-5.17087690e+00	 0.00000000e+00	-4.40000000e-01	1.000	 35	 0	
  19	-4.13670152e+00	 0.00000000e+00	-4.40000000e-01	1.000	 35	 0	
  20	-3.10252614e+00	 0.00000000e+00	-4.40000000e-01	1.000	 35	 0	
  21	-2.06835076e+00	 0.00000000e+00	-4.40000000e-01	1.000	 35	 0	
  22	-1.03417538e+00	 0.00000000e+00	-4.40000000e-01	1.000	 35	 0	
  23	 0.00000000e+00	 1.03417538e+00	-4.40000000e-01	1.000	 35	 0	
  24	 1.03417538e+00	 1.03417538e+00	-4.40000000e-01	1.000	 35	 0	
  25	 2.06835076e+00	 1.03417538e+00	-4.40000000e-01	1.000	 35	 0	
  26	 3.10252614e+00	 1.03417538e+00	-4.40000000e-01	1.000	 35	 0	
  27	 4.13670152e+00	 1.03417538e+00	-4.40000000e-01	1.000	 35	 0	
  28	 5.17087690e+00	 1.03417538e+00	-4.40000000e-01	1.000	 35	 0	
  29	 6.20505228e+00	 1.03417538e+00	-4.40000000e-01	1.000	 35	 0	
  30	 7.23922766e+00	 1.03417538e+00	-4.40000000e-01	1.000	 35	 0	
  31	 8.27340304e+00	 1.03417538e+00	-4.40000000e-01	1.000	 35	 0	
  32	 9.30757842e+00	 1.03417538e+00	-4.40000000e-01	1.000	 35	 0	
  33	 1.03417538e+01	 1.03417538e+00	-4.40000000e-01	1.000	 35	 0	
  34	 1.13759292e+01	 1.03417538e+00	-4.40000000e-01	1.000	 35	 0	
  35	-1.13759292e+01	 1.03417538e+00	-4.40000000e-01	1.000	 35	 0	
  36	-1.03417538e+01	 1.03417538e+00	-4.40000000e-01	1.000	 35	 0	
  37	-9.30757842e+00	 1.03417538e+00	-4.40000000e-01	1.000	 35	 0	
  38	-8.27340304e+00	 1.03417538e+00	-4.40000000e-01	1.000	 35	 0	
  39	-7.23922766e+00	 1.03417538e+00	-4.40000000e-01	1.000	 35	 0	
  40	-6.20505228e+00	 1.03417538e+00	-4.40000000e-01	1.000	 35	 0	
  41	-5.17087690e+00	 1.03417538e+00	-4.40000000e-01	1.000	 35	 0	
  42	-4.13670152e+00	 1.03417538e+00	-4.40000000e-01	1.000	 35	 0	
  43	-3.10252614e+00	 1.03417538e+00	-4.40000000e-01	1.000	 35	 0	
  44	-2.06835076e+00	 1.03417538e+00	-4.40000000e-01	1.000	 35	 0	
  45	-1.03417538e+00	 1.03417538e+00	-4.40000000e-01	1.000	 35	 0	
  46	 0.00000000e+00	 2.06835076e+00	-4.40000000e-01	1.000	 35	 0	
  47	 1.03417538e+00	 2.06835076e+00	-4.40000000e-01	1.000	 35	 0	
  48	 2.06835076e+00	 2.06835076e+00	-4.40000000e-01	1.000	 35	 0	
  49	 3.10252614e+00	 2.06835076e+00	-4.40000000e-01	1.000	 35	 0	
  50	 4.13670152e+00	 2.06835076e+00	-4.40000000e-01	1.000	 35	 0	
  51	 5.17087690e+00	 2.06835076e+00	-4.40000000e-01	1.000	 35	 0	
  52	 6.20505228e+00	 2.06835076e+00	-4.40000000e-01	1.000	 35	 0	
  53	 7.23922766e+00	 2.06835076e+00	-4.40000000e-01	1.000	 35	 0	
  54	 8.27340304e+00	 2.06835076e+00	-4.40000000e-01	1.000	 35	 0	
  55	 9.30757842e+00	 2.06835076e+00	-4.40000000e-01	1.000	 35	 0	
  56	 1.03417538e+01	 2.06835076e+00	-4.40000000e-01	1.000	 35	 0	
  57	 1.13759292e+01	 2.06835076e+00	-4.40000000e-01	1.000	 35	 0	
  58	-1.13759292e+01	 2.06835076e+00	-4.40000000e-01	1.000	 35	 0	
  59	-1.03417538e+01	 2.06835076e+00	-4.40000000e-01	1.000	 35	 0	
  60	-9.30757842e+00	 2.06835076e+00	-4.40000000e-01	1.000	 35	 0	
  61	-8.27340304e+00	 2.06835076e+00	-4.40000000e-01	1.000	 35	 0	
  62	-7.23922766e+00	 2.06835076e+00	-4.40000000e-01	1.000	 35	 0	
  63	-6.20505228e+00	 2.06835076e+00	-4.40000000e-01	1.000	 35	 0	
  64	-5.17087690e+00	 2.06835076e+00	-4.40000000e-01	1.000	 35	 0	
  65	-4.13670152e+00	 2.06835076e+00	-4.40000000e-01	1.000	 35	 0	
  66	-3.10252614e+00	 2.06835076e+00	-4.40000000e-01	1.000	 35	 0	
  67	-2.06835076e+00	 2.06835076e+00	-4.40000000e-01	1.000	 35	 0	
  68	-1.03417538e+00	 2.06835076e+00	-4.40000000e-01	1.000	 35	 0	
  69	 0.00000000e+00	 3.10252614e+00	-4.40000000e-01	1.000	 35	 0	
  70	 1.03417538e+00	 3.10252614e+00	-4.40000000e-01	1.000	 35	 0	
  71	 2.06835076e+00	 3.10252614e+00	-4.40000000e-01	1.000	 35	 0	
  72	 3.10252614e+00	 3.10252614e+00	-4.40000000e-01	1.000	 35	 0	
  73	 4.13670152e+00	 3.10252614e+00	-4.40000000e-01	1.000	 35	 0	
  74	 5.17087690e+00	 3.10252614e+00	-4.40000000e-01	1.000	 35	 0	
  75	 6.20505228e+00	 3.10252614e+00	-4.40000000e-01	1.000	 35	 0	
  76	 7.23922766e+00	 3.10252614e+00	-4.40000000e-01	1.000	 35	 0	
  77	 8.27340304e+00	 3.10252614e+00	-4.40000000e-01	1.000	 35	 0	
  78	 9.30757842e+00	 3.10252614e+00	-4.40000000e-01	1.000	 35	 0	
  79	 1.03417538e+01	 3.10252614e+00	-4.40000000e-01	1.000	 35	 0	
  80	 1.13759292e+01	 3.10252614e+00	-4.40000000e-01	1.000	 35	 0	
  81	-1.13759292e+01	 3.10252614e+00	-4.40000000e-01	1.000	 35	 0	
  82	-1.03417538e+01	 3.10252614e+00	-4.40000000e-01	1.000	 35	 0	
  83	-9.30757842e+00	 3.10252614e+00	-4.40000000e-01	1.000	 35	 0	
  84	-8.27340304e+00	 3.10252614e+00	-4.40000000e-01	1.000	 35	 0	
  85	-7.23922766e+00	 3.10252614e+00	-4.40000000e-01	1.000	 35	 0	
  86	-6.20505228e+00	 3.10252614e+00	-4.40000000e-01	1.000	 35	 0	
  87	-5.17087690e+00	 3.10252614e+00	-4.40000000e-01	1.000	 35	 0	
  88	-4.13670152e+00	 3.10252614e+00	-4.40000000e-01	1.000	 35	 0	
  89	-3.10252614e+00	 3.10252614e+00	-4.40000000e-01	1.000	 35	 0	
  90	-2.06835076e+00	 3.10252614e+00	-4.40000000e-01	1.000	 35	 0	
  91	-1.03417538e+00	 3.10252614e+00	-4.40000000e-01	1.000	 35	 0	
  92	 0.00000000e+00	 4.13670152e+00	-4.40000000e-01	1.000	 35	 0	
  93	 1.03417538e+00	 4.13670152e+00	-4.40000000e-01	1.000	 35	 0	
  94	 2.06835076e+00	 4.13670152e+00	-4.40000000e-01	1.000	 35	 0	
  95	 3.10252614e+00	 4.13670152e+00	-4.40000000e-01	1.000	 35	 0	
  96	 4.13670152e+00	 4.13670152e+00	-4.40000000e-01	1.000	 35	 0	
  97	 5.17087690e+00	 4.13670152e+00	-4.40000000e-01	1.000	 35	 0	
  98	 6.20505228e+00	 4.13670152e+00	-4.40000000e-01	1.000	 35	 0	
  99	 7.23922766e+00	 4.13670152e+00	-4.40000000e-01	1.000	 35	 0	
 100	 8.27340304e+00	 4.13670152e+00	-4.40000000e-01	1.000	 35	 0	
 101	 9.30757842e+00	 4.13670152e+00	-4.40000000e-01	1.000	 35	 0	
 102	 1.03417538e+01	 4.13670152e+00	-4.40000000e-01	1.000	 35	 0	
 103	 1.13759292e+01	 4.13670152e+00	-4.40000000e-01	1.000	 35	 0	
 104	-1.13759292e+01	 4.13670152e+00	-4.40000000e-01	1.000	 35	 0	
 105	-1.03417538e+01	 4.13670152e+00	-4.40000000e-01	1.000	 35	 0	
 106	-9.30757842e+00	 4.13670152e+00	-4.40000000e-01	1.000	 35	 0	
 107	-8.27340304e+00	 4.13670152e+00	-4.40000000e-01	1.000	 35	 0	
 108	-7.23922766e+00	 4.13670152e+00	-4.40000000e-01	1.000	 35	 0	
 109	-6.20505228e+00	 4.13670152e+00	-4.40000000e-01	1.000	 35	 0	
 110	-5.17087690e+00	 4.13670152e+00	-4.40000000e-01	1.000	 35	 0	
 111	-4.13670152e+00	 4.13670152e+00	-4.40000000e-01	1.000	 35	 0	
 112	-3.10252614e+00	 4.13670152e+00	-4.40000000e-01	1.000	 35	 0	
 113	-2.06835076e+00	 4.13670152e+00	-4.40000000e-01	1.000	 35	 0	
 114	-1.03417538e+00	 4.13670152e+00	-4.40000000e-01	1.000	 35	 0	
 115	 0.00000000e+00	 5.17087690e+00	-4.40000000e-01	1.000	 35	 0	
 116	 1.03417538e+00	 5.17087690e+00	-4.40000000e-01	1.000	 35	 0	
 117	 2.06835076e+00	 5.17087690e+00	-4.40000000e-01	1.000	 35	 0	
 118	 3.10252614e+00	 5.17087690e+00	-4.40000000e-01	1.000	 35	 0	
 119	 4.13670152e+00	 5.17087690e+00	-4.40000000e-01	1.000	 35	 0	
 120	 5.17087690e+00	 5.17087690e+00	-4.40000000e-01	1.000	 35	 0	
 121	 6.20505228e+00	 5.17087690e+00	-4.40000000e-01	1.000	 35	 0	
 122	 7.23922766e+00	 5.17087690e+00	-4.40000000e-01	1.000	 35	 0	
 123	 8.27340304e+00	 5.17087690e+00	-4.40000000e-01	1.000	 35	 0	
 124	 9.30757842e+00	 5.17087690e+00	-4.40000000e-01	1.000	 35	 0	
 125	 1.03417538e+01	 5.17087690e+00	-4.40000000e-01	1.000	 35	 0	
 126	 1.13759292e+01	 5.17087690e+00	-4.40000000e-01	1.000	 35	 0	
 127	-1.13759292e+01	 5.17087690e+00	-4.40000000e-01	1.000	 35	 0	
 128	-1.03417538e+01	 5.17087690e+00	-4.40000000e-01	1.000	 35	 0	
 129	-9.30757842e+00	 5.17087690e+00	-4.40000000e-01	1.000	 35	 0	
 130	-8.27340304e+00	 5.17087690e+00	-4.40000000e-01	1.000	 35	 0	
 131	-7.23922766e+00	 5.17087690e+00	-4.40000000e-01	1.000	 35	 0	
 132	-6.20505228e+00	 5.17087690e+00	-4.40000000e-01	1.000	 35	 0	
 133	-5.17087690e+00	 5.17087690e+00	-4.40000000e-01	1.000	 35	 0	
 134	-4.13670152e+00	 5.17087690e+00	-4.40000000e-01	1.000	 35	 0	
 135	-3.10252614e+00	 5.17087690e+00	-4.40000000e-01	1.000	 35	 0	
 136	-2.06835076e+00	 5.17087690e+00	-4.40000000e-01	1.000	 35	 0	
 137	-1.03417538e+00	 5.17087690e+00	-4.40000000e-01	1.000	 35	 0	
 138	 0.00000000e+00	 6.20505228e+00	-4.40000000e-01	1.000	 35	 0	
 139	 1.03417538e+00	 6.20505228e+00	-4.40000000e-01	1.000	 35	 0	
 140	 2.06835076e+00	 6.20505228e+00	-4.40000000e-01	1.000	 35	 0	
 141	 3.10252614e+00	 6.20505228e+00	-4.40000000e-01	1.000	 35	 0	
 142	 4.13670152e+00	 6.20505228e+00	-4.40000000e-01	1.000	 35	 0	
 143	 5.17087690e+00	 6.20505228e+00	-4.40000000e-01	1.000	 35	 0	
 144	 6.20505228e+00	 6.20505228e+00	-4.40000000e-01	1.000	 35	 0	
 145	 7.23922766e+00	 6.20505228e+00	-4.40000000e-01	1.000	 35	 0	
 146	 8.27340304e+00	 6.20505228e+00	-4.40000000e-01	1.000	 35	 0	
 147	 9.30757842e+00	 6.20505228e+00	-4.40000000e-01	1.000	 35	 0	
 148	 1.03417538e+01	 6.20505228e+00	-4.40000000e-01	1.000	 35	 0	
 149	 1.13759292e+01	 6.20505228e+00	-4.40000000e-01	1.000	 35	 0	
 150	-1.13759292e+01	 6.20505228e+00	-4.40000000e-01	1.000	 35	 0	
 151	-1.03417538e+01	 6.20505228e+00	-4.40000000e-01	1.000	 35	 0	
 152	-9.30757842e+00	 6.20505228e+00	-4.40000000e-01	1.000	 35	 0	
 153	-8.27340304e+00	 6.20505228e+00	-4.40000000e-01	1.000	 35	 0	
 154	-7.23922766e+00	 6.20505228e+00	-4.40000000e-01	1.000	 35	 0	
 155	-6.20505228e+00	 6.20505228e+00	-4.40000000e-01	1.000	 35	 0	
 156	-5.17087690e+00	 6.20505228e+00	-4.40000000e-01	1.000	 35	 0	
 157	-4.13670152e+00	 6.20505228e+00	-4.40000000e-01	1.000	 35	 0	
 158	-3.10252614e+00	 6.20505228e+00	-4.40000000e-01	1.000	 35	 0	
 159	-2.06835076e+00	 6.20505228e+00	-4.40000000e-01	1.000	 35	 0	
 160	-1.03417538e+00	 6.20505228e+00	-4.40000000e-01	1.000	 35	 0	
 161	 0.00000000e+00	 7.23922766e+00	-4.40000000e-01	1.000	 35	 0	
 162	 1.03417538e+00	 7.23922766e+00	-4.40000000e-01	1.000	 35	 0	
 163	 2.06835076e+00	 7.23922766e+00	-4.40000000e-01	1.000	 35	 0	
 164	 3.10252614e+00	 7.23922766e+00	-4.40000000e-01	1.000	 35	 0	
 165	 4.13670152e+00	 7.23922766e+00	-4.40000000e-01	1.000	 35	 0	
 166	 5.17087690e+00	 7.23922766e+00	-4.40000000e-01	1.000	 35	 0	
 167	 6.20505228e+00	 7.23922766e+00	-4.40000000e-01	1.000	 35	 0	
 168	 7.23922766e+00	 7.23922766e+00	-4.40000000e-01	1.000	 35	 0	
 169	 8.27340304e+00	 7.23922766e+00	-4.40000000e-01	1.000	 35	 0	
 170	 9.30757842e+00	 7.23922766e+00	-4.40000000e-01	1.000	 35	 0	
 171	 1.03417538e+01	 7.23922766e+00	-4.40000000e-01	1.000	 35	 0	
 172	 1.13759292e+01	 7.23922766e+00	-4.40000000e-01	1.000	 35	 0	
 173	-1.13759292e+01	 7.23922766e+00	-4.40000000e-01	1.000	 35	 0	
 174	-1.03417538e+01	 7.23922766e+00	-4.40000000e-01	1.000	 35	 0	
 175	-9.30757842e+00	 7.23922766e+00	-4.40000000e-01	1.000	 35	 0	
 176	-8.27340304e+00	 7.23922766e+00	-4.40000000e-01	1.000	 35	 0	
 177	-7.23922766e+00	 7.23922766e+00	-4.40000000e-01	1.000	 35	 0	
 178	-6.20505228e+00	 7.23922766e+00	-4.40000000e-01	1.000	 35	 0	
 179	-5.17087690e+00	 7.23922766e+00	-4.40000000e-01	1.000	 35	 0	
 180	-4.13670152e+00	 7.23922766e+00	-4.40000000e-01	1.000	 35	 0	
 181	-3.10252614e+00	 7.23922766e+00	-4.40000000e-01	1.000	 35	 0	
 182	-2.06835076e+00	 7.23922766e+00	-4.40000000e-01	1.000	 35	 0	
 183	-1.03417538e+00	 7.23922766e+00	-4.40000000e-01	1.000	 35	 0	
 184	 0.00000000e+00	 8.27340304e+00	-4.40000000e-01	1.000	 35	 0	
 185	 1.03417538e+00	 8.27340304e+00	-4.40000000e-01	1.000	 35	 0	
 186	 2.06835076e+00	 8.27340304e+00	-4.40000000e-01	1.000	 35	 0	
 187	 3.10252614e+00	 8.27340304e+00	-4.40000000e-01	1.000	 35	 0	
 188	 4.13670152e+00	 8.27340304e+00	-4.40000000e-01	1.000	 35	 0	
 189	 5.17087690e+00	 8.27340304e+00	-4.40000000e-01	1.000	 35	 0	
 190	 6.20505228e+00	 8.27340304e+00	-4.40000000e-01	1.000	 35	 0	
 191	 7.23922766e+00	 8.27340304e+00	-4.40000000e-01	1.000	 35	 0	
 192	 8.27340304e+00	 8.27340304e+00	-4.40000000e-01	1.000	 35	 0	
 193	 9.30757842e+00	 8.27340304e+00	-4.40000000e-01	1.000	 35	 0	
 194	 1.03417538e+01	 8.27340304e+00	-4.40000000e-01	1.000	 35	 0	
 195	 1.13759292e+01	 8.27340304e+00	-4.40000000e-01	1.000	 35	 0	
 196	-1.13759292e+01	 8.27340304e+00	-4.40000000e-01	1.000	 35	 0	
 197	-1.03417538e+01	 8.27340304e+00	-4.40000000e-01	1.000	 35	 0	
 198	-9.30757842e+00	 8.27340304e+00	-4.40000000e-01	1.000	 35	 0	
 199	-8.27340304e+00	 8.27340304e+00	-4.40000000e-01	1.000	 35	 0	
 200	-7.23922766e+00	 8.27340304e+00	-4.40000000e-01	1.000	 35	 0	
 201	-6.20505228e+00	 8.27340304e+00	-4.40000000e-01	1.000	 35	 0	
 202	-5.17087690e+00	 8.27340304e+00	-4.40000000e-01	1.000	 35	 0	
 203	-4.13670152e+00	 8.27340304e+00	-4.40000000e-01	1.000	 35	 0	
 204	-3.10252614e+00	 8.27340304e+00	-4.40000000e-01	1.000	 35	 0	
 205	-2.06835076e+00	 8.27340304e+00	-4.40000000e-01	1.000	 35	 0	
 206	-1.03417538e+00	 8.27340304e+00	-4.40000000e-01	1.000	 35	 0	
 207	 0.00000000e+00	 9.30757842e+00	-4.40000000e-01	1.000	 35	 0	
 208	 1.03417538e+00	 9.30757842e+00	-4.40000000e-01	1.000	 35	 0	
 209	 2.06835076e+00	 9.30757842e+00	-4.40000000e-01	1.000	 35	 0	
 210	 3.10252614e+00	 9.30757842e+00	-4.40000000e-01	1.000	 35	 0	
 211	 4.13670152e+00	 9.30757842e+00	-4.40000000e-01	1.000	 35	 0	
 212	 5.17087690e+00	 9.30757842e+00	-4.40000000e-01	1.000	 35	 0	
 213	 6.20505228e+00	 9.30757842e+00	-4.40000000e-01	1.000	 35	 0	
 214	 7.23922766e+00	 9.30757842e+00	-4.40000000e-01	1.000	 35	 0	
 215	 8.27340304e+00	 9.30757842e+00	-4.40000000e-01	1.000	 35	 0	
 216	 9.30757842e+00	 9.30757842e+00	-4.40000000e-01	1.000	 35	 0	
 217	 1.03417538e+01	 9.30757842e+00	-4.40000000e-01	1.000	 35	 0	
 218	 1.13759292e+01	 9.30757842e+00	-4.40000000e-01	1.000	 35	 0	
 219	-1.13759292e+01	 9.30757842e+00	-4.40000000e-01	1.000	 35	 0	
 220	-1.03417538e+01	 9.30757842e+00	-4.40000000e-01	1.000	 35	 0	
 221	-9.30757842e+00	 9.30757842e+00	-4.40000000e-01	1.000	 35	 0	
 222	-8.27340304e+00	 9.30757842e+00	-4.40000000e-01	1.000	 35	 0	
 223	-7.23922766e+00	 9.30757842e+00	-4.40000000e-01	1.000	 35	 0	
 224	-6.20505228e+00	 9.30757842e+00	-4.40000000e-01	1.000	 35	 0	
 225	-5.17087690e+00	 9.30757842e+00	-4.40000000e-01	1.000	 35	 0	
 226	-4.13670152e+00	 9.30757842e+00	-4.40000000e-01	1.000	 35	 0	
 227	-3.10252614e+00	 9.30757842e+00	-4.40000000e-01	1.000	 35	 0	
 228	-2.06835076e+00	 9.30757842e+00	-4.40000000e-01	1.000	 35	 0	
 229	-1.03417538e+00	 9.30757842e+00	-4.40000000e-01	1.000	 35	 0	
 230	 0.00000000e+00	 1.03417538e+01	-4.40000000e-01	1.000	 35	 0	
 231	 1.03417538e+00	 1.03417538e+01	-4.40000000e-01	1.000	 35	 0	
 232	 2.06835076e+00	 1.03417538e+01	-4.40000000e-01	1.000	 35	 0	
 233	 3.10252614e+00	 1.03417538e+01	-4.40000000e-01	1.000	 35	 0	
 234	 4.13670152e+00	 1.03417538e+01	-4.40000000e-01	1.000	 35	 0	
 235	 5.17087690e+00	 1.03417538e+01	-4.40000000e-01	1.000	 35	 0	
 236	 6.20505228e+00	 1.03417538e+01	-4.40000000e-01	1.000	 35	 0	
 237	 7.23922766e+00	 1.03417538e+01	-4.40000000e-01	1.000	 35	 0	
 238	 8.27340304e+00	 1.03417538e+01	-4.40000000e-01	1.000	 35	 0	
 239	 9.30757842e+00	 1.03417538e+01	-4.40000000e-01	1.000	 35	 0	
 240	 1.03417538e+01	 1.03417538e+01	-4.40000000e-01	1.000	 35	 0	
 241	 1.13759292e+01	 1.03417538e+01	-4.40000000e-01	1.000	 35	 0	
 242	-1.13759292e+01	 1.03417538e+01	-4.40000000e-01	1.000	 35	 0	
 243	-1.03417538e+01	 1.03417538e+01	-4.40000000e-01	1.000	 35	 0	
 244	-9.30757842e+00	 1.03417538e+01	-4.40000000e-01	1.000	 35	 0	
 245	-8.27340304e+00	 1.03417538e+01	-4.40000000e-01	1.000	 35	 0	
 246	-7.23922766e+00	 1.03417538e+01	-4.40000000e-01	1.000	 35	 0	
 247	-6.20505228e+00	 1.03417538e+01	-4.40000000e-01	1.000	 35	 0	
 248	-5.17087690e+00	 1.03417538e+01	-4.40000000e-01	1.000	 35	 0	
 249	-4.13670152e+00	 1.03417538e+01	-4.40000000e-01	1.000	 35	 0	
 250	-3.10252614e+00	 1.03417538e+01	-4.40000000e-01	1.000	 35	 0	
 251	-2.06835076e+00	 1.03417538e+01	-4.40000000e-01	1.000	 35	 0	
 252	-1.03417538e+00	 1.03417538e+01	-4.40000000e-01	1.000	 35	 0	
 253	 0.00000000e+00	 1.13759292e+01	-4.40000000e-01	1.000	 35	 0	
 254	 1.03417538e+00	 1.13759292e+01	-4.40000000e-01	1.000	 35	 0	
 255	 2.06835076e+00	 1.13759292e+01	-4.40000000e-01	1.000	 35	 0	
 256	 3.10252614e+00	 1.13759292e+01	-4.40000000e-01	1.000	 35	 0	
 257	 4.13670152e+00	 1.13759292e+01	-4.40000000e-01	1.000	 35	 0	
 258	 5.17087690e+00	 1.13759292e+01	-4.40000000e-01	1.000	 35	 0	
 259	 6.20505228e+00	 1.13759292e+01	-4.40000000e-01	1.000	 35	 0	
 260	 7.23922766e+00	 1.13759292e+01	-4.40000000e-01	1.000	 35	 0	
 261	 8.27340304e+00	 1.13759292e+01	-4.40000000e-01	1.000	 35	 0	
 262	 9.30757842e+00	 1.13759292e+01	-4.40000000e-01	1.000	 35	 0	
 263	 1.03417538e+01	 1.13759292e+01	-4.40000000e-01	1.000	 35	 0	
 264	 1.13759292e+01	 1.13759292e+01	-4.40000000e-01	1.000	 35	 0	
 265	-1.13759292e+01	 1.13759292e+01	-4.40000000e-01	1.000	 35	 0	
 266	-1.03417538e+01	 1.13759292e+01	-4.40000000e-01	1.000	 35	 0	
 267	-9.30757842e+00	 1.13759292e+01	-4.40000000e-01	1.000	 35	 0	
 268	-8.27340304e+00	 1.13759292e+01	-4.40000000e-01	1.000	 35	 0	
 269	-7.23922766e+00	 1.13759292e+01	-4.40000000e-01	1.000	 35	 0	
 270	-6.20505228e+00	 1.13759292e+01	-4.40000000e-01	1.000	 35	 0	
 271	-5.17087690e+00	 1.13759292e+01	-4.40000000e-01	1.000	 35	 0	
 272	-4.13670152e+00	 1.13759292e+01	-4.40000000e-01	1.000	 35	 0	
 273	-3.10252614e+00	 1.13759292e+01	-4.40000000e-01	1.000	 35	 0	
 274	-2.06835076e+00	 1.13759292e+01	-4.40000000e-01	1.000	 35	 0	
 275	-1.03417538e+00	 1.13759292e+01	-4.40000000e-01	1.000	 35	 0	
 276	 0.00000000e+00	-1.13759292e+01	-4.40000000e-01	1.000	 35	 0	
 277	 1.03417538e+00	-1.13759292e+01	-4.40000000e-01	1.000	 35	 0	
 278	 2.06835076e+00	-1.13759292e+01	-4.40000000e-01	1.000	 35	 0	
 279	 3.10252614e+00	-1.13759292e+01	-4.40000000e-01	1.000	 35	 0	
 280	 4.13670152e+00	-1.13759292e+01	-4.40000000e-01	1.000	 35	 0	
 281	 5.17087690e+00	-1.13759292e+01	-4.40000000e-01	1.000	 35	 0	
 282	 6.20505228e+00	-1.13759292e+01	-4.40000000e-01	1.000	 35	 0	
 283	 7.23922766e+00	-1.13759292e+01	-4.40000000e-01	1.000	 35	 0	
 284	 8.27340304e+00	-1.13759292e+01	-4.40000000e-01	1.000	 35	 0	
 285	 9.30757842e+00	-1.13759292e+01	-4.40000000e-01	1.000	 35	 0	
 286	 1.03417538e+01	-1.13759292e+01	-4.40000000e-01	1.000	 35	 0	
 287	 1.13759292e+01	-1.13759292e+01	-4.40000000e-01	1.000	 35	 0	
 288	-1.13759292e+01	-1.13759292e+01	-4.40000000e-01	1.000	 35	 0	
 289	-1.03417538e+01	-1.13759292e+01	-4.40000000e-01	1.000	 35	 0	
 290	-9.30757842e+00	-1.13759292e+01	-4.40000000e-01	1.000	 35	 0	
 291	-8.27340304e+00	-1.13759292e+01	-4.40000000e-01	1.000	 35	 0	
 292	-7.23922766e+00	-1.13759292e+01	-4.40000000e-01	1.000	 35	 0	
 293	-6.20505228e+00	-1.13759292e+01	-4.40000000e-01	1.000	 35	 0	
 294	-5.17087690e+00	-1.13759292e+01	-4.40000000e-01	1.000	 35	 0	
 295	-4.13670152e+00	-1.13759292e+01	-4.40000000e-01	1.000	 35	 0	
 296	-3.10252614e+00	-1.13759292e+01	-4.40000000e-01	1.000	 35	 0	
 297	-2.06835076e+00	-1.13759292e+01	-4.40000000e-01	1.000	 35	 0	
 298	-1.03417538e+00	-1.13759292e+01	-4.40000000e-01	1.000	 35	 0	
 299	 0.00000000e+00	-1.03417538e+01	-4.40000000e-01	1.000	 35	 0	
 300	 1.03417538e+00	-1.03417538e+01	-4.40000000e-01	1.000	 35	 0	
 301	 2.06835076e+00	-1.03417538e+01	-4.40000000e-01	1.000	 35	 0	
 302	 3.10252614e+00	-1.03417538e+01	-4.40000000e-01	1.000	 35	 0	
 303	 4.13670152e+00	-1.03417538e+01	-4.40000000e-01	1.000	 35	 0	
 304	 5.17087690e+00	-1.03417538e+01	-4.40000000e-01	1.000	 35	 0	
 305	 6.20505228e+00	-1.03417538e+01	-4.40000000e-01	1.000	 35	 0	
 306	 7.23922766e+00	-1.03417538e+01	-4.40000000e-01	1.000	 35	 0	
 307	 8.27340304e+00	-1.03417538e+01	-4.40000000e-01	1.000	 35	 0	
 308	 9.30757842e+00	-1.03417538e+01	-4.40000000e-01	1.000	 35	 0	
 309	 1.03417538e+01	-1.03417538e+01	-4.40000000e-01	1.000	 35	 0	
 310	 1.13759292e+01	-1.03417538e+01	-4.40000000e-01	1.000	 35	 0	
 311	-1.13759292e+01	-1.03417538e+01	-4.40000000e-01	1.000	 35	 0	
 312	-1.03417538e+01	-1.03417538e+01	-4.40000000e-01	1.000	 35	 0	
 313	-9.30757842e+00	-1.03417538e+01	-4.40000000e-01	1.000	 35	 0	
 314	-8.27340304e+00	-1.03417538e+01	-4.40000000e-01	1.000	 35	 0	
 315	-7.23922766e+00	-1.03417538e+01	-4.40000000e-01	1.000	 35	 0	
 316	-6.20505228e+00	-1.03417538e+01	-4.40000000e-01	1.000	 35	 0	
 317	-5.17087690e+00	-1.03417538e+01	-4.40000000e-01	1.000	 35	 0	
 318	-4.13670152e+00	-1.03417538e+01	-4.40000000e-01	1.000	 35	 0	
 319	-3.10252614e+00	-1.03417538e+01	-4.40000000e-01	1.000	 35	 0	
 320	-2.06835076e+00	-1.03417538e+01	-4.40000000e-01	1.000	 35	 0	
 321	-1.03417538e+00	-1.03417538e+01	-4.40000000e-01	1.000	 35	 0	
 322	 0.00000000e+00	-9.30757842e+00	-4.40000000e-01	1.000	 35	 0	
 323	 1.03417538e+00	-9.30757842e+00	-4.40000000e-01	1.000	 35	 0	
 324	 2.06835076e+00	-9.30757842e+00	-4.40000000e-01	1.000	 35	 0	
 325	 3.10252614e+00	-9.30757842e+00	-4.40000000e-01	1.000	 35	 0	
 326	 4.13670152e+00	-9.30757842e+00	-4.40000000e-01	1.000	 35	 0	
 327	 5.17087690e+00	-9.30757842e+00	-4.40000000e-01	1.000	 35	 0	
 328	 6.20505228e+00	-9.30757842e+00	-4.40000000e-01	1.000	 35	 0	
 329	 7.23922766e+00	-9.30757842e+00	-4.40000000e-01	1.000	 35	 0	
 330	 8.27340304e+00	-9.30757842e+00	-4.40000000e-01	1.000	 35	 0	
 331	 9.30757842e+00	-9.30757842e+00	-4.40000000e-01	1.000	 35	 0	
 332	 1.03417538e+01	-9.30757842e+00	-4.40000000e-01	1.000	 35	 0	
 333	 1.13759292e+01	-9.30757842e+00	-4.40000000e-01	1.000	 35	 0	
 334	-1.13759292e+01	-9.30757842e+00	-4.40000000e-01	1.000	 35	 0	
 335	-1.03417538e+01	-9.30757842e+00	-4.40000000e-01	1.000	 35	 0	
 336	-9.30757842e+00	-9.30757842e+00	-4.40000000e-01	1.000	 35	 0	
 337	-8.27340304e+00	-9.30757842e+00	-4.40000000e-01	1.000	 35	 0	
 338	-7.23922766e+00	-9.30757842e+00	-4.40000000e-01	1.000	 35	 0	
 339	-6.20505228e+00	-9.30757842e+00	-4.40000000e-01	1.000	 35	 0	
 340	-5.17087690e+00	-9.30757842e+00	-4.40000000e-01	1.000	 35	 0	
 341	-4.13670152e+00	-9.30757842e+00	-4.40000000e-01	1.000	 35	 0	
 342	-3.10252614e+00	-9.30757842e+00	-4.40000000e-01	1.000	 35	 0	
 343	-2.06835076e+00	-9.30757842e+00	-4.40000000e-01	1.000	 35	 0	
 344	-1.03417538e+00	-9.30757842e+00	-4.40000000e-01	1.000	 35	 0	
 345	 0.00000000e+00	-8.27340304e+00	-4.40000000e-01	1.000	 35	 0	
 346	 1.03417538e+00	-8.27340304e+00	-4.40000000e-01	1.000	 35	 0	
 347	 2.06835076e+00	-8.27340304e+00	-4.40000000e-01	1.000	 35	 0	
 348	 3.10252614e+00	-8.27340304e+00	-4.40000000e-01	1.000	 35	 0	
 349	 4.13670152e+00	-8.27340304e+00	-4.40000000e-01	1.000	 35	 0	
 350	 5.17087690e+00	-8.27340304e+00	-4.40000000e-01	1.000	 35	 0	
 351	 6.20505228e+00	-8.27340304e+00	-4.40000000e-01	1.000	 35	 0	
 352	 7.23922766e+00	-8.27340304e+00	-4.40000000e-01	1.000	 35	 0	
 353	 8.27340304e+00	-8.27340304e+00	-4.40000000e-01	1.000	 35	 0	
 354	 9.30757842e+00	-8.27340304e+00	-4.40000000e-01	1.000	 35	 0	
 355	 1.03417538e+01	-8.27340304e+00	-4.40000000e-01	1.000	 35	 0	
 356	 1.13759292e+01	-8.27340304e+00	-4.40000000e-01	1.000	 35	 0	
 357	-1.13759292e+01	-8.27340304e+00	-4.40000000e-01	1.000	 35	 0	
 358	-1.03417538e+01	-8.27340304e+00	-4.40000000e-01	1.000	 35	 0	
 359	-9.30757842e+00	-8.27340304e+00	-4.40000000e-01	1.000	 35	 0	
 360	-8.27340304e+00	-8.27340304e+00	-4.40000000e-01	1.000	 35	 0	
 361	-7.23922766e+00	-8.27340304e+00	-4.40000000e-01	1.000	 35	 0	
 362	-6.20505228e+00	-8.27340304e+00	-4.40000000e-01	1.000	 35	 0	
 363	-5.17087690e+00	-8.27340304e+00	-4.40000000e-01	1.000	 35	 0	
 364	-4.13670152e+00	-8.27340304e+00	-4.40000000e-01	1.000	 35	 0	
 365	-3.10252614e+00	-8.27340304e+00	-4.40000000e-01	1.000	 35	 0	
 366	-2.06835076e+00	-8.27340304e+00	-4.40000000e-01	1.000	 35	 0	
 367	-1.03417538e+00	-8.27340304e+00	-4.40000000e-01	1.000	 35	 0	
 368	 0.00000000e+00	-7.23922766e+00	-4.40000000e-01	1.000	 35	 0	
 369	 1.03417538e+00	-7.23922766e+00	-4.40000000e-01	1.000	 35	 0	
 370	 2.06835076e+00	-7.23922766e+00	-4.40000000e-01	1.000	 35	 0	
 371	 3.10252614e+00	-7.23922766e+00	-4.40000000e-01	1.000	 35	 0	
 372	 4.13670152e+00	-7.23922766e+00	-4.40000000e-01	1.000	 35	 0	
 373	 5.17087690e+00	-7.23922766e+00	-4.40000000e-01	1.000	 35	 0	
 374	 6.20505228e+00	-7.23922766e+00	-4.40000000e-01	1.000	 35	 0	
 375	 7.23922766e+00	-7.23922766e+00	-4.40000000e-01	1.000	 35	 0	
 376	 8.27340304e+00	-7.23922766e+00	-4.40000000e-01	1.000	 35	 0	
 377	 9.30757842e+00	-7.23922766e+00	-4.40000000e-01	1.000	 35	 0	
 378	 1.03417538e+01	-7.23922766e+00	-4.40000000e-01	1.000	 35	 0	
 379	 1.13759292e+01	-7.23922766e+00	-4.40000000e-01	1.000	 35	 0	
 380	-1.13759292e+01	-7.23922766e+00	-4.40000000e-01	1.000	 35	 0	
 381	-1.03417538e+01	-7.23922766e+00	-4.40000000e-01	1.000	 35	 0	
 382	-9.30757842e+00	-7.23922766e+00	-4.40000000e-01	1.000	 35	 0	
 383	-8.27340304e+00	-7.23922766e+00	-4.40000000e-01	1.000	 35	 0	
 384	-7.23922766e+00	-7.23922766e+00	-4.40000000e-01	1.000	 35	 0	
 385	-6.20505228e+00	-7.23922766e+00	-4.40000000e-01	1.000	 35	 0	
 386	-5.17087690e+00	-7.23922766e+00	-4.40000000e-01	1.000	 35	 0	
 387	-4.13670152e+00	-7.23922766e+00	-4.40000000e-01	1.000	 35	 0	
 388	-3.10252614e+00	-7.23922766e+00	-4.40000000e-01	1.000	 35	 0	
 389	-2.06835076e+00	-7.23922766e+00	-4.40000000e-01	1.000	 35	 0	
 390	-1.03417538e+00	-7.23922766e+00	-4.40000000e-01	1.000	 35	 0	
 391	 0.00000000e+00	-6.20505228e+00	-4.40000000e-01	1.000	 35	 0	
 392	 1.03417538e+00	-6.20505228e+00	-4.40000000e-01	1.000	 35	 0	
 393	 2.06835076e+00	-6.20505228e+00	-4.40000000e-01	1.000	 35	 0	
 394	 3.10252614e+00	-6.20505228e+00	-4.40000000e-01	1.000	 35	 0	
 395	 4.13670152e+00	-6.20505228e+00	-4.40000000e-01	1.000	 35	 0	
 396	 5.17087690e+00	-6.20505228e+00	-4.40000000e-01	1.000	 35	 0	
 397	 6.20505228e+00	-6.20505228e+00	-4.40000000e-01	1.000	 35	 0	
 398	 7.23922766e+00	-6.20505228e+00	-4.40000000e-01	1.000	 35	 0	
 399	 8.27340304e+00	-6.20505228e+00	-4.40000000e-01	1.000	 35	 0	
 400	 9.30757842e+00	-6.20505228e+00	-4.40000000e-01	1.000	 35	 0	
 401	 1.03417538e+01	-6.20505228e+00	-4.40000000e-01	1.000	 35	 0	
 402	 1.13759292e+01	-6.20505228e+00	-4.40000000e-01	1.000	 35	 0	
 403	-1.13759292e+01	-6.20505228e+00	-4.40000000e-01	1.000	 35	 0	
 404	-1.03417538e+01	-6.20505228e+00	-4.40000000e-01	1.000	 35	 0	
 405	-9.30757842e+00	-6.20505228e+00	-4.40000000e-01	1.000	 35	 0	
 406	-8.27340304e+00	-6.20505228e+00	-4.40000000e-01	1.000	 35	 0	
 407	-7.23922766e+00	-6.20505228e+00	-4.40000000e-01	1.000	 35	 0	
 408	-6.20505228e+00	-6.20505228e+00	-4.40000000e-01	1.000	 35	 0	
 409	-5.17087690e+00	-6.20505228e+00	-4.40000000e-01	1.000	 35	 0	
 410	-4.13670152e+00	-6.20505228e+00	-4.40000000e-01	1.000	 35	 0	
 411	-3.10252614e+00	-6.20505228e+00	-4.40000000e-01	1.000	 35	 0	
 412	-2.06835076e+00	-6.20505228e+00	-4.40000000e-01	1.000	 35	 0	
 413	-1.03417538e+00	-6.20505228e+00	-4.40000000e-01	1.000	 35	 0	
 414	 0.00000000e+00	-5.17087690e+00	-4.40000000e-01	1.000	 35	 0	
 415	 1.03417538e+00	-5.17087690e+00	-4.40000000e-01	1.000	 35	 0	
 416	 2.06835076e+00	-5.17087690e+00	-4.40000000e-01	1.000	 35	 0	
 417	 3.10252614e+00	-5.17087690e+00	-4.40000000e-01	1.000	 35	 0	
 418	 4.13670152e+00	-5.17087690e+00	-4.40000000e-01	1.000	 35	 0	
 419	 5.17087690e+00	-5.17087690e+00	-4.40000000e-01	1.000	 35	 0	
 420	 6.20505228e+00	-5.17087690e+00	-4.40000000e-01	1.000	 35	 0	
 421	 7.23922766e+00	-5.17087690e+00	-4.40000000e-01	1.000	 35	 0	
 422	 8.27340304e+00	-5.17087690e+00	-4.40000000e-01	1.000	 35	 0	
 423	 9.30757842e+00	-5.17087690e+00	-4.40000000e-01	1.000	 35	 0	
 424	 1.03417538e+01	-5.17087690e+00	-4.40000000e-01	1.000	 35	 0	
 425	 1.13759292e+01	-5.17087690e+00	-4.40000000e-01	1.000	 35	 0	
 426	-1.13759292e+01	-5.17087690e+00	-4.40000000e-01	1.000	 35	 0	
 427	-1.03417538e+01	-5.17087690e+00	-4.40000000e-01	1.000	 35	 0	
 428	-9.30757842e+00	-5.17087690e+00	-4.40000000e-01	1.000	 35	 0	
 429	-8.27340304e+00	-5.17087690e+00	-4.40000000e-01	1.000	 35	 0	
 430	-7.23922766e+00	-5.17087690e+00	-4.40000000e-01	1.000	 35	 0	
 431	-6.20505228e+00	-5.17087690e+00	-4.40000000e-01	1.000	 35	 0	
 432	-5.17087690e+00	-5.17087690e+00	-4.40000000e-01	1.000	 35	 0	
 433	-4.13670152e+00	-5.17087690e+00	-4.40000000e-01	1.000	 35	 0	
 434	-3.10252614e+00	-5.17087690e+00	-4.40000000e-01	1.000	 35	 0	
 435	-2.06835076e+00	-5.17087690e+00	-4.40000000e-01	1.000	 35	 0	
 436	-1.03417538e+00	-5.17087690e+00	-4.40000000e-01	1.000	 35	 0	
 437	 0.00000000e+00	-4.13670152e+00	-4.40000000e-01	1.000	 35	 0	
 438	 1.03417538e+00	-4.13670152e+00	-4.40000000e-01	1.000	 35	 0	
 439	 2.06835076e+00	-4.13670152e+00	-4.40000000e-01	1.000	 35	 0	
 440	 3.10252614e+00	-4.13670152e+00	-4.40000000e-01	1.000	 35	 0	
 441	 4.13670152e+00	-4.13670152e+00	-4.40000000e-01	1.000	 35	 0	
 442	 5.17087690e+00	-4.13670152e+00	-4.40000000e-01	1.000	 35	 0	
 443	 6.20505228e+00	-4.13670152e+00	-4.40000000e-01	1.000	 35	 0	
 444	 7.23922766e+00	-4.13670152e+00	-4.40000000e-01	1.000	 35	 0	