ITEM: TIMESTEP
0
ITEM: BOX BOUNDS xx yy zz
-32.70350	 32.70350	
-32.70350	 32.70350	
-1.10000	 1.10000	
ITEM: NUMBER OF ATOMS
7938
ITEM: ATOMS index x y z diameter charge species
   0	 0.00000000e+00	 0.00000000e+00	-4.40000000e-01	1.000	 35	 0	
   1	 1.03820625e+00	 0.00000000e+00	-4.40000000e-01	1.000	 35	 0	
   2	 2.07641251e+00	 0.00000000e+00	-4.40000000e-01	1.000	 35	 0	
   3	 3.11461876e+00	 0.00000000e+00	-4.40000000e-01	1.000	 35	 0	
   4	 4.15282502e+00	 0.00000000e+00	-4.40000000e-01	1.000	 35	 0	
   5	 5.19103127e+00	 0.00000000e+00	-4.40000000e-01	1.000	 35	 0	
   6	 6.22923753e+00	 0.00000000e+00	-4.40000000e-01	1.000	 35	 0	
   7	 7.26744378e+00	 0.00000000e+00	-4.40000000e-01	1.000	 35	 0	
   8	 8.30565003e+00	 0.00000000e+00	-4.40000000e-01	1.000	 35	 0	
   9	 9.34385629e+00	 0.00000000e+00	-4.40000000e-01	1.000	 35	 0	
  10	 1.03820625e+01	 0.00000000e+00	-4.40000000e-01	1.000	 35	 0	
  11	 1.14202688e+01	 0.00000000e+00	-4.40000000e-01	1.000	 35	 0	
  12	 1.24584751e+01	 0.00000000e+00	-4.40000000e-01	1.000	 35	 0	
  13	 1.34966813e+01	 0.00000000e+00	-4.40000000e-01	1.000	 35	 0	
  14	 1.45348876e+01	 0.00000000e+00	-4.40000000e-01	1.000	 35	 0	
  15	 1.55730938e+01	 0.00000000e+00	-4.40000000e-01	1.000	 35	 0	
  16	 1.66113001e+01	 0.00000000e+00	-4.40000000e-01	1.000	 35	 0	
  17	 1.76495063e+01	 0.00000000e+00	-4.40000000e-01	1.000	 35	 0	
  18	 1.86877126e+01	 0.00000000e+00	-4.40000000e-01	1.000	 35	 0	
  19	 1.97259188e+01	 0.00000000e+00	-4.40000000e-01	1.000	 35	 0	
  20	 2.07641251e+01	 0.00000000e+00	-4.40000000e-01	1.000	 35	 0	
  21	 2.18023313e+01	 0.00000000e+00	-4.40000000e-01	1.000	 35	 0	
  22	 2.28405376e+01	 0.00000000e+00	-4.40000000e-01	1.000	 35	 0	
  23	 2.38787438e+01	 0.00000000e+00	-4.40000000e-01	1.000	 35	 0	
  24	 2.49169501e+01	 0.00000000e+00	-4.40000000e-01	1.000	 35	 0	
  25	 2.59551564e+01	 0.00000000e+00	-4.40000000e-01	1.000	 35	 0	
  26	 2.69933626e+01	 0.00000000e+00	-4.40000000e-01	1.000	 35	 0	
  27	 2.80315689e+01	 0.00000000e+00	-4.40000000e-01	1.000	 35	 0	
  28	 2.90697751e+01	 0.00000000e+00	-4.40000000e-01	1.000	 35	 0	
  29	 3.01079814e+01	 0.00000000e+00	-4.40000000e-01	1.000	 35	 0	
  30	 3.11461876e+01	 0.00000000e+00	-4.40000000e-01	1.000	 35	 0	
  31	 3.21843939e+01	 0.00000000e+00	-4.40000000e-01	1.000	 35	 0	
  32	-3.21843939e+01	 0.00000000e+00	-4.40000000e-01	1.000	 35	 0	
  33	-3.11461876e+01	 0.00000000e+00	-4.40000000e-01	1.000	 35	 0	
  34	-3.01079814e+01	 0.00000000e+00	-4.40000000e-01	1.000	 35	 0	
  35	-2.90697751e+01	 0.00000000e+00	-4.40000000e-01	1.000	 35	 0	
  36	-2.80315689e+01	 0.00000000e+00	-4.40000000e-01	1.000	 35	 0	
  37	-2.69933626e+01	 0.00000000e+00	-4.40000000e-01	1.000	 35	 0	
  38	-2.59551564e+01	 0.00000000e+00	-4.40000000e-01	1.000	 35	 0	
  39	-2.49169501e+01	 0.00000000e+00	-4.40000000e-01	1.000	 35	 0	
  40	-2.38787438e+01	 0.00000000e+00	-4.40000000e-01	1.000	 35	 0	
  41	-2.28405376e+01	 0.00000000e+00	-4.40000000e-01	1.000	 35	 0	
  42	-2.18023313e+01	 0.00000000e+00	-4.40000000e-01	1.000	 35	 0	
  43	-2.07641251e+01	 0.00000000e+00	-4.40000000e-01	1.000	 35	 0	
  44	-1.97259188e+01	 0.00000000e+00	-4.40000000e-01	1.000	 35	 0	
  45	-1.86877126e+01	 0.00000000e+00	-4.40000000e-01	1.000	 35	 0	
  46	-1.76495063e+01	 0.00000000e+00	-4.40000000e-01	1.000	 35	 0	
  47	-1.66113001e+01	 0.00000000e+00	-4.40000000e-01	1.000	 35	 0	
  48	-1.55730938e+01	 0.00000000e+00	-4.40000000e-01	1.000	 35	 0	
  49	-1.45348876e+01	 0.00000000e+00	-4.40000000e-01	1.000	 35	 0	
  50	-1.34966813e+01	 0.00000000e+00	-4.40000000e-01	1.000	 35	 0	
  51	-1.24584751e+01	 0.00000000e+00	-4.40000000e-01	1.000	 35	 0	
  52	-1.14202688e+01	 0.00000000e+00	-4.40000000e-01	1.000	 35	 0	
  53	-1.03820625e+01	 0.00000000e+00	-4.40000000e-01	1.000	 35	 0	
  54	-9.34385629e+00	 0.00000000e+00	-4.40000000e-01	1.000	 35	 0	
  55	-8.30565003e+00	 0.00000000e+00	-4.40000000e-01	1.000	 35	 0	
  56	-7.26744378e+00	 0.00000000e+00	-4.40000000e-01	1.000	 35	 0	
  57	-6.22923753e+00	 0.00000000e+00	-4.40000000e-01	1.000	 35	 0	
  58	-5.19103127e+00	 0.00000000e+00	-4.40000000e-01	1.000	 35	 0	
  59	-4.15282502e+00	 0.00000000e+00	-4.40000000e-01	1.000	 35	 0	
  60	-3.11461876e+00	 0.00000000e+00	-4.40000000e-01	1.000	 35	 0	
  61	-2.07641251e+00	 0.00000000e+00	-4.40000000e-01	1.000	 35	 0	
  62	-1.03820625e+00	 0.00000000e+00	-4.40000000e-01	1.000	 35	 0	
  63	 0.00000000e+00	 1.03820625e+00	-4.40000000e-01	1.000	 35	 0	
  64	 1.03820625e+00	 1.03820625e+00	-4.40000000e-01	1.000	 35	 0	
  65	 2.07641251e+00	 1.03820625e+00	-4.40000000e-01	1.000	 35	 0	
  66	 3.11461876e+00	 1.03820625e+00	-4.40000000e-01	1.000	 35	 0	
  67	 4.15282502e+00	 1.03820625e+00	-4.40000000e-01	1.000	 35	 0	
  68	 5.19103127e+00	 1.03820625e+00	-4.40000000e-01	1.000	 35	 0	
  69	 6.22923753e+00	 1.03820625e+00	-4.40000000e-01	1.000	 35	 0	
  70	 7.26744378e+00	 1.03820625e+00	-4.40000000e-01	1.000	 35	 0	
  71	 8.30565003e+00	 1.03820625e+00	-4.40000000e-01	1.000	 35	 0	
  72	 9.34385629e+00	 1.03820625e+00	-4.40000000e-01	1.000	 35	 0	
  73	 1.03820625e+01	 1.03820625e+00	-4.40000000e-01	1.000	 35	 0	
  74	 1.14202688e+01	 1.03820625e+00	-4.40000000e-01	1.000	 35	 0	
  75	 1.24584751e+01	 1.03820625e+00	-4.40000000e-01	1.000	 35	 0	
  76	 1.34966813e+01	 1.03820625e+00	-4.40000000e-01	1.000	 35	 0	
  77	 1.45348876e+01	 1.03820625e+00	-4.40000000e-01	1.000	 35	 0	
  78	 1.55730938e+01	 1.03820625e+00	-4.40000000e-01	1.000	 35	 0	
  79	 1.66113001e+01	 1.03820625e+00	-4.40000000e-01	1.000	 35	 0	
  80	 1.76495063e+01	 1.03820625e+00	-4.40000000e-01	1.000	 35	 0	
  81	 1.86877126e+01	 1.03820625e+00	-4.40000000e-01	1.000	 35	 0	
  82	 1.97259188e+01	 1.03820625e+00	-4.40000000e-01	1.000	 35	 0	
  83	 2.07641251e+01	 1.03820625e+00	-4.40000000e-01	1.000	 35	 0	
  84	 2.18023313e+01	 1.03820625e+00	-4.40000000e-01	1.000	 35	 0	
  85	 2.28405376e+01	 1.03820625e+00	-4.40000000e-01	1.000	 35	 0	
  86	 2.38787438e+01	 1.03820625e+00	-4.40000000e-01	1.000	 35	 0	
  87	 2.49169501e+01	 1.03820625e+00	-4.40000000e-01	1.000	 35	 0	
  88	 2.59551564e+01	 1.03820625e+00	-4.40000000e-01	1.000	 35	 0	
  89	 2.69933626e+01	 1.03820625e+00	-4.40000000e-01	1.000	 35	 0	
  90	 2.80315689e+01	 1.03820625e+00	-4.40000000e-01	1.000	 35	 0	
  91	 2.90697751e+01	 1.03820625e+00	-4.40000000e-01	1.000	 35	 0	
  92	 3.01079814e+01	 1.03820625e+00	-4.40000000e-01	1.000	 35	 0	
  93	 3.11461876e+01	 1.03820625e+00	-4.40000000e-01	1.000	 35	 0	
  94	 3.21843939e+01	 1.03820625e+00	-4.40000000e-01	1.000	 35	 0	
  95	-3.21843939e+01	 1.03820625e+00	-4.40000000e-01	1.000	 35	 0	
  96	-3.11461876e+01	 1.03820625e+00	-4.40000000e-01	1.000	 35	 0	
  97	-3.01079814e+01	 1.03820625e+00	-4.40000000e-01	1.000	 35	 0	
  98	-2.90697751e+01	 1.03820625e+00	-4.40000000e-01	1.000	 35	 0	
  99	-2.80315689e+01	 1.03820625e+00	-4.40000000e-01	1.000	 35	 0	
 100	-2.69933626e+01	 1.03820625e+00	-4.40000000e-01	1.000	 35	 0	
 101	-2.59551564e+01	 1.03820625e+00	-4.40000000e-01	1.000	 35	 0	
 102	-2.49169501e+01	 1.03820625e+00	-4.40000000e-01	1.000	 35	 0	
 103	-2.38787438e+01	 1.03820625e+00	-4.40000000e-01	1.000	 35	 0	
 104	-2.28405376e+01	 1.03820625e+00	-4.40000000e-01	1.000	 35	 0	
 105	-2.18023313e+01	 1.03820625e+00	-4.40000000e-01	1.000	 35	 0	
 106	-2.07641251e+01	 1.03820625e+00	-4.40000000e-01	1.000	 35	 0	
 107	-1.97259188e+01	 1.03820625e+00	-4.40000000e-01	1.000	 35	 0	
 108	-1.86877126e+01	 1.03820625e+00	-4.40000000e-01	1.000	 35	 0	
 109	-1.76495063e+01	 1.03820625e+00	-4.40000000e-01	1.000	 35	 0	
 110	-1.66113001e+01	 1.03820625e+00	-4.40000000e-01	1.000	 35	 0	
 111	-1.55730938e+01	 1.03820625e+00	-4.40000000e-01	1.000	 35	 0	
 112	-1.45348876e+01	 1.03820625e+00	-4.40000000e-01	1.000	 35	 0	
 113	-1.34966813e+01	 1.03820625e+00	-4.40000000e-01	1.000	 35	 0	
 114	-1.24584751e+01	 1.03820625e+00	-4.40000000e-01	1.000	 35	 0	
 115	-1.14202688e+01	 1.03820625e+00	-4.40000000e-01	1.000	 35	 0	
 116	-1.03820625e+01	 1.03820625e+00	-4.40000000e-01	1.000	 35	 0	
 117	-9.34385629e+00	 1.03820625e+00	-4.40000000e-01	1.000	 35	 0	
 118	-8.30565003e+00	 1.03820625e+00	-4.40000000e-01	1.000	 35	 0	
 119	-7.26744378e+00	 1.03820625e+00	-4.40000000e-01	1.000	 35	 0	
 120	-6.22923753e+00	 1.03820625e+00	-4.40000000e-01	1.000	 35	 0	
 121	-5.19103127e+00	 1.03820625e+00	-4.40000000e-01	1.000	 35	 0	
 122	-4.15282502e+00	 1.03820625e+00	-4.40000000e-01	1.000	 35	 0	
 123	-3.11461876e+00	 1.03820625e+00	-4.40000000e-01	1.000	 35	 0	
 124	-2.07641251e+00	 1.03820625e+00	-4.40000000e-01	1.000	 35	 0	
 125	-1.03820625e+00	 1.03820625e+00	-4.40000000e-01	1.000	 35	 0	
 126	 0.00000000e+00	 2.07641251e+00	-4.40000000e-01	1.000	 35	 0	
 127	 1.03820625e+00	 2.07641251e+00	-4.40000000e-01	1.000	 35	 0	
 128	 2.07641251e+00	 2.07641251e+00	-4.40000000e-01	1.000	 35	 0	
 129	 3.11461876e+00	 2.07641251e+00	-4.40000000e-01	1.000	 35	 0	
 130	 4.15282502e+00	 2.07641251e+00	-4.40000000e-01	1.000	 35	 0	
 131	 5.19103127e+00	 2.07641251e+00	-4.40000000e-01	1.000	 35	 0	
 132	 6.22923753e+00	 2.07641251e+00	-4.40000000e-01	1.000	 35	 0	
 133	 7.26744378e+00	 2.07641251e+00	-4.40000000e-01	1.000	 35	 0	
 134	 8.30565003e+00	 2.07641251e+00	-4.40000000e-01	1.000	 35	 0	
 135	 9.34385629e+00	 2.07641251e+00	-4.40000000e-01	1.000	 35	 0	
 136	 1.03820625e+01	 2.07641251e+00	-4.40000000e-01	1.000	 35	 0	
 137	 1.14202688e+01	 2.07641251e+00	-4.40000000e-01	1.000	 35	 0	
 138	 1.24584751e+01	 2.07641251e+00	-4.40000000e-01	1.000	 35	 0	
 139	 1.34966813e+01	 2.07641251e+00	-4.40000000e-01	1.000	 35	 0	
 140	 1.45348876e+01	 2.07641251e+00	-4.40000000e-01	1.000	 35	 0	
 141	 1.55730938e+01	 2.07641251e+00	-4.40000000e-01	1.000	 35	 0	
 142	 1.66113001e+01	 2.07641251e+00	-4.40000000e-01	1.000	 35	 0	
 143	 1.76495063e+01	 2.07641251e+00	-4.40000000e-01	1.000	 35	 0	
 144	 1.86877126e+01	 2.07641251e+00	-4.40000000e-01	1.000	 35	 0	
 145	 1.97259188e+01	 2.07641251e+00	-4.40000000e-01	1.000	 35	 0	
 146	 2.07641251e+01	 2.07641251e+00	-4.40000000e-01	1.000	 35	 0	
 147	 2.18023313e+01	 2.07641251e+00	-4.40000000e-01	1.000	 35	 0	
 148	 2.28405376e+01	 2.07641251e+00	-4.40000000e-01	1.000	 35	 0	
 149	 2.38787438e+01	 2.07641251e+00	-4.40000000e-01	1.000	 35	 0	
 150	 2.49169501e+01	 2.07641251e+00	-4.40000000e-01	1.000	 35	 0	
 151	 2.59551564e+01	 2.07641251e+00	-4.40000000e-01	1.000	 35	 0	
 152	 2.69933626e+01	 2.07641251e+00	-4.40000000e-01	1.000	 35	 0	
 153	 2.80315689e+01	 2.07641251e+00	-4.40000000e-01	1.000	 35	 0	
 154	 2.90697751e+01	 2.07641251e+00	-4.40000000e-01	1.000	 35	 0	
 155	 3.01079814e+01	 2.07641251e+00	-4.40000000e-01	1.000	 35	 0	
 156	 3.11461876e+01	 2.07641251e+00	-4.40000000e-01	1.000	 35	 0	
 157	 3.21843939e+01	 2.07641251e+00	-4.40000000e-01	1.000	 35	 0	
 158	-3.21843939e+01	 2.07641251e+00	-4.40000000e-01	1.000	 35	 0	
 159	-3.11461876e+01	 2.07641251e+00	-4.40000000e-01	1.000	 35	 0	
 160	-3.01079814e+01	 2.07641251e+00	-4.40000000e-01	1.000	 35	 0	
 161	-2.90697751e+01	 2.07641251e+00	-4.40000000e-01	1.000	 35	 0	
 162	-2.80315689e+01	 2.07641251e+00	-4.40000000e-01	1.000	 35	 0	
 163	-2.69933626e+01	 2.07641251e+00	-4.40000000e-01	1.000	 35	 0	
 164	-2.59551564e+01	 2.07641251e+00	-4.40000000e-01	1.000	 35	 0	
 165	-2.49169501e+01	 2.07641251e+00	-4.40000000e-01	1.000	 35	 0	
 166	-2.38787438e+01	 2.07641251e+00	-4.40000000e-01	1.000	 35	 0	
 167	-2.28405376e+01	 2.07641251e+00	-4.40000000e-01	1.000	 35	 0	
 168	-2.18023313e+01	 2.07641251e+00	-4.40000000e-01	1.000	 35	 0	
 169	-2.07641251e+01	 2.07641251e+00	-4.40000000e-01	1.000	 35	 0	
 170	-1.97259188e+01	 2.07641251e+00	-4.40000000e-01	1.000	 35	 0	
 171	-1.86877126e+01	 2.07641251e+00	-4.40000000e-01	1.000	 35	 0	
 172	-1.76495063e+01	 2.07641251e+00	-4.40000000e-01	1.000	 35	 0	
 173	-1.66113001e+01	 2.07641251e+00	-4.40000000e-01	1.000	 35	 0	
 174	-1.55730938e+01	 2.07641251e+00	-4.40000000e-01	1.000	 35	 0	
 175	-1.45348876e+01	 2.07641251e+00	-4.40000000e-01	1.000	 35	 0	
 176	-1.34966813e+01	 2.07641251e+00	-4.40000000e-01	1.000	 35	 0	
 177	-1.24584751e+01	 2.07641251e+00	-4.40000000e-01	1.000	 35	 0	
 178	-1.14202688e+01	 2.07641251e+00	-4.40000000e-01	1.000	 35	 0	
 179	-1.03820625e+01	 2.07641251e+00	-4.40000000e-01	1.000	 35	 0	
 180	-9.34385629e+00	 2.07641251e+00	-4.40000000e-01	1.000	 35	 0	
 181	-8.30565003e+00	 2.07641251e+00	-4.40000000e-01	1.000	 35	 0	
 182	-7.26744378e+00	 2.07641251e+00	-4.40000000e-01	1.000	 35	 0	
 183	-6.22923753e+00	 2.07641251e+00	-4.40000000e-01	1.000	 35	 0	
 184	-5.19103127e+00	 2.07641251e+00	-4.40000000e-01	1.000	 35	 0	
 185	-4.15282502e+00	 2.07641251e+00	-4.40000000e-01	1.000	 35	 0	
 186	-3.11461876e+00	 2.07641251e+00	-4.40000000e-01	1.000	 35	 0	
 187	-2.07641251e+00	 2.07641251e+00	-4.40000000e-01	1.000	 35	 0	
 188	-1.03820625e+00	 2.07641251e+00	-4.40000000e-01	1.000	 35	 0	
 189	 0.00000000e+00	 3.11461876e+00	-4.40000000e-01	1.000	 35	 0	
 190	 1.03820625e+00	 3.11461876e+00	-4.40000000e-01	1.000	 35	 0	
 191	 2.07641251e+00	 3.11461876e+00	-4.40000000e-01	1.000	 35	 0	
 192	 3.11461876e+00	 3.11461876e+00	-4.40000000e-01	1.000	 35	 0	
 193	 4.15282502e+00	 3.11461876e+00	-4.40000000e-01	1.000	 35	 0	
 194	 5.19103127e+00	 3.11461876e+00	-4.40000000e-01	1.000	 35	 0	
 195	 6.22923753e+00	 3.11461876e+00	-4.40000000e-01	1.000	 35	 0	
 196	 7.26744378e+00	 3.11461876e+00	-4.40000000e-01	1.000	 35	 0	
 197	 8.30565003e+00	 3.11461876e+00	-4.40000000e-01	1.000	 35	 0	
 198	 9.34385629e+00	 3.11461876e+00	-4.40000000e-01	1.000	 35	 0	
 199	 1.03820625e+01	 3.11461876e+00	-4.40000000e-01	1.000	 35	 0	
 200	 1.14202688e+01	 3.11461876e+00	-4.40000000e-01	1.000	 35	 0	
 201	 1.24584751e+01	 3.11461876e+00	-4.40000000e-01	1.000	 35	 0	
 202	 1.34966813e+01	 3.11461876e+00	-4.40000000e-01	1.000	 35	 0	
 203	 1.45348876e+01	 3.11461876e+00	-4.40000000e-01	1.000	 35	 0	
 204	 1.55730938e+01	 3.11461876e+00	-4.40000000e-01	1.000	 35	 0	
 205	 1.66113001e+01	 3.11461876e+00	-4.40000000e-01	1.000	 35	 0	
 206	 1.76495063e+01	 3.11461876e+00	-4.40000000e-01	1.000	 35	 0	
 207	 1.86877126e+01	 3.11461876e+00	-4.40000000e-01	1.000	 35	 0	
 208	 1.97259188e+01	 3.11461876e+00	-4.40000000e-01	1.000	 35	 0	
 209	 2.07641251e+01	 3.11461876e+00	-4.40000000e-01	1.000	 35	 0	
 210	 2.18023313e+01	 3.11461876e+00	-4.40000000e-01	1.000	 35	 0	
 211	 2.28405376e+01	 3.11461876e+00	-4.40000000e-01	1.000	 35	 0	
 212	 2.38787438e+01	 3.11461876e+00	-4.40000000e-01	1.000	 35	 0	
 213	 2.49169501e+01	 3.11461876e+00	-4.40000000e-01	1.000	 35	 0	
 214	 2.59551564e+01	 3.11461876e+00	-4.40000000e-01	1.000	 35	 0	
 215	 2.69933626e+01	 3.11461876e+00	-4.40000000e-01	1.000	 35	 0	
 216	 2.80315689e+01	 3.11461876e+00	-4.40000000e-01	1.000	 35	 0	
 217	 2.90697751e+01	 3.11461876e+00	-4.40000000e-01	1.000	 35	 0	
 218	 3.01079814e+01	 3.11461876e+00	-4.40000000e-01	1.000	 35	 0	
 219	 3.11461876e+01	 3.11461876e+00	-4.40000000e-01	1.000	 35	 0	
 220	 3.21843939e+01	 3.11461876e+00	-4.40000000e-01	1.000	 35	 0	
 221	-3.21843939e+01	 3.11461876e+00	-4.40000000e-01	1.000	 35	 0	
 222	-3.11461876e+01	 3.11461876e+00	-4.40000000e-01	1.000	 35	 0	
 223	-3.01079814e+01	 3.11461876e+00	-4.40000000e-01	1.000	 35	 0	
 224	-2.90697751e+01	 3.11461876e+00	-4.40000000e-01	1.000	 35	 0	
 225	-2.80315689e+01	 3.11461876e+00	-4.40000000e-01	1.000	 35	 0	
 226	-2.69933626e+01	 3.11461876e+00	-4.40000000e-01	1.000	 35	 0	
 227	-2.59551564e+01	 3.11461876e+00	-4.40000000e-01	1.000	 35	 0	
 228	-2.49169501e+01	 3.11461876e+00	-4.40000000e-01	1.000	 35	 0	
 229	-2.38787438e+01	 3.11461876e+00	-4.40000000e-01	1.000	 35	 0	
 230	-2.28405376e+01	 3.11461876e+00	-4.40000000e-01	1.000	 35	 0	
 231	-2.18023313e+01	 3.11461876e+00	-4.40000000e-01	1.000	 35	 0	
 232	-2.07641251e+01	 3.11461876e+00	-4.40000000e-01	1.000	 35	 0	
 233	-1.97259188e+01	 3.11461876e+00	-4.40000000e-01	1.000	 35	 0	
 234	-1.86877126e+01	 3.11461876e+00	-4.40000000e-01	1.000	 35	 0	
 235	-1.76495063e+01	 3.11461876e+00	-4.40000000e-01	1.000	 35	 0	
 236	-1.66113001e+01	 3.11461876e+00	-4.40000000e-01	1.000	 35	 0	
 237	-1.55730938e+01	 3.11461876e+00	-4.40000000e-01	1.000	 35	 0	
 238	-1.45348876e+01	 3.11461876e+00	-4.40000000e-01	1.000	 35	 0	
 239	-1.34966813e+01	 3.11461876e+00	-4.40000000e-01	1.000	 35	 0	
 240	-1.24584751e+01	 3.11461876e+00	-4.40000000e-01	1.000	 35	 0	
 241	-1.14202688e+01	 3.11461876e+00	-4.40000000e-01	1.000	 35	 0	
 242	-1.03820625e+01	 3.11461876e+00	-4.40000000e-01	1.000	 35	 0	
 243	-9.34385629e+00	 3.11461876e+00	-4.40000000e-01	1.000	 35	 0	
 244	-8.30565003e+00	 3.11461876e+00	-4.40000000e-01	1.000	 35	 0	
 245	-7.26744378e+00	 3.11461876e+00	-4.40000000e-01	1.000	 35	 0	
 246	-6.22923753e+00	 3.11461876e+00	-4.40000000e-01	1.000	 35	 0	
 247	-5.19103127e+00	 3.11461876e+00	-4.40000000e-01	1.000	 35	 0	
 248	-4.15282502e+00	 3.11461876e+00	-4.40000000e-01	1.000	 35	 0	
 249	-3.11461876e+00	 3.11461876e+00	-4.40000000e-01	1.000	 35	 0	
 250	-2.07641251e+00	 3.11461876e+00	-4.40000000e-01	1.000	 35	 0	
 251	-1.03820625e+00	 3.11461876e+00	-4.40000000e-01	1.000	 35	 0	
 252	 0.00000000e+00	 4.15282502e+00	-4.40000000e-01	1.000	 35	 0	
 253	 1.03820625e+00	 4.15282502e+00	-4.40000000e-01	1.000	 35	 0	
 254	 2.07641251e+00	 4.15282502e+00	-4.40000000e-01	1.000	 35	 0	
 255	 3.11461876e+00	 4.15282502e+00	-4.40000000e-01	1.000	 35	 0	
 256	 4.15282502e+00	 4.15282502e+00	-4.40000000e-01	1.000	 35	 0	
 257	 5.19103127e+00	 4.15282502e+00	-4.40000000e-01	1.000	 35	 0	
 258	 6.22923753e+00	 4.15282502e+00	-4.40000000e-01	1.000	 35	 0	
 259	 7.26744378e+00	 4.15282502e+00	-4.40000000e-01	1.000	 35	 0	
 260	 8.30565003e+00	 4.15282502e+00	-4.40000000e-01	1.000	 35	 0	
 261	 9.34385629e+00	 4.15282502e+00	-4.40000000e-01	1.000	 35	 0	
 262	 1.03820625e+01	 4.15282502e+00	-4.40000000e-01	1.000	 35	 0	
 263	 1.14202688e+01	 4.15282502e+00	-4.40000000e-01	1.000	 35	 0	
 264	 1.24584751e+01	 4.15282502e+00	-4.40000000e-01	1.000	 35	 0	
 265	 1.34966813e+01	 4.15282502e+00	-4.40000000e-01	1.000	 35	 0	
 266	 1.45348876e+01	 4.15282502e+00	-4.40000000e-01	1.000	 35	 0	
 267	 1.55730938e+01	 4.15282502e+00	-4.40000000e-01	1.000	 35	 0	
 268	 1.66113001e+01	 4.15282502e+00	-4.40000000e-01	1.000	 35	 0	
 269	 1.76495063e+01	 4.15282502e+00	-4.40000000e-01	1.000	 35	 0	
 270	 1.86877126e+01	 4.15282502e+00	-4.40000000e-01	1.000	 35	 0	
 271	 1.97259188e+01	 4.15282502e+00	-4.40000000e-01	1.000	 35	 0	
 272	 2.07641251e+01	 4.15282502e+00	-4.40000000e-01	1.000	 35	 0	
 273	 2.18023313e+01	 4.15282502e+00	-4.40000000e-01	1.000	 35	 0	
 274	 2.28405376e+01	 4.15282502e+00	-4.40000000e-01	1.000	 35	 0	
 275	 2.38787438e+01	 4.15282502e+00	-4.40000000e-01	1.000	 35	 0	
 276	 2.49169501e+01	 4.15282502e+00	-4.40000000e-01	1.000	 35	 0	
 277	 2.59551564e+01	 4.15282502e+00	-4.40000000e-01	1.000	 35	 0	
 278	 2.69933626e+01	 4.15282502e+00	-4.40000000e-01	1.000	 35	 0	
 279	 2.80315689e+01	 4.15282502e+00	-4.40000000e-01	1.000	 35	 0	
 280	 2.90697751e+01	 4.15282502e+00	-4.40000000e-01	1.000	 35	 0	
 281	 3.01079814e+01	 4.15282502e+00	-4.40000000e-01	1.000	 35	 0	
 282	 3.11461876e+01	 4.15282502e+00	-4.40000000e-01	1.000	 35	 0	
 283	 3.21843939e+01	 4.15282502e+00	-4.40000000e-01	1.000	 35	 0	
 284	-3.21843939e+01	 4.15282502e+00	-4.40000000e-01	1.000	 35	 0	
 285	-3.11461876e+01	 4.15282502e+00	-4.40000000e-01	1.000	 35	 0	
 286	-3.01079814e+01	 4.15282502e+00	-4.40000000e-01	1.000	 35	 0	
 287	-2.90697751e+01	 4.15282502e+00	-4.40000000e-01	1.000	 35	 0	
 288	-2.80315689e+01	 4.15282502e+00	-4.40000000e-01	1.000	 35	 0	
 289	-2.69933626e+01	 4.15282502e+00	-4.40000000e-01	1.000	 35	 0	
 290	-2.59551564e+01	 4.15282502e+00	-4.40000000e-01	1.000	 35	 0	
 291	-2.49169501e+01	 4.15282502e+00	-4.40000000e-01	1.000	 35	 0	
 292	-2.38787438e+01	 4.15282502e+00	-4.40000000e-01	1.000	 35	 0	
 293	-2.28405376e+01	 4.15282502e+00	-4.40000000e-01	1.000	 35	 0	
 294	-2.18023313e+01	 4.15282502e+00	-4.40000000e-01	1.000	 35	 0	
 295	-2.07641251e+01	 4.15282502e+00	-4.40000000e-01	1.000	 35	 0	
 296	-1.97259188e+01	 4.15282502e+00	-4.40000000e-01	1.000	 35	 0	
 297	-1.86877126e+01	 4.15282502e+00	-4.40000000e-01	1.000	 35	 0	
 298	-1.76495063e+01	 4.15282502e+00	-4.40000000e-01	1.000	 35	 0	
 299	-1.66113001e+01	 4.15282502e+00	-4.40000000e-01	1.000	 35	 0	
 300	-1.55730938e+01	 4.15282502e+00	-4.40000000e-01	1.000	 35	 0	
 301	-1.45348876e+01	 4.15282502e+00	-4.40000000e-01	1.000	 35	 0	
 302	-1.34966813e+01	 4.15282502e+00	-4.40000000e-01	1.000	 35	 0	
 303	-1.24584751e+01	 4.15282502e+00	-4.40000000e-01	1.000	 35	 0	
 304	-1.14202688e+01	 4.15282502e+00	-4.40000000e-01	1.000	 35	 0	
 305	-1.03820625e+01	 4.15282502e+00	-4.40000000e-01	1.000	 35	 0	
 306	-9.34385629e+00	 4.15282502e+00	-4.40000000e-01	1.000	 35	 0	
 307	-8.30565003e+00	 4.15282502e+00	-4.40000000e-01	1.000	 35	 0	
 308	-7.26744378e+00	 4.15282502e+00	-4.40000000e-01	1.000	 35	 0	
 309	-6.22923753e+00	 4.15282502e+00	-4.40000000e-01	1.000	 35	 0	
 310	-5.19103127e+00	 4.15282502e+00	-4.40000000e-01	1.000	 35	 0	
 311	-4.15282502e+00	 4.15282502e+00	-4.40000000e-01	1.000	 35	 0	
 312	-3.11461876e+00	 4.15282502e+00	-4.40000000e-01	1.000	 35	 0	
 313	-2.07641251e+00	 4.15282502e+00	-4.40000000e-01	1.000	 35	 0	
 314	-1.03820625e+00	 4.15282502e+00	-4.40000000e-01	1.000	 35	 0	
 315	 0.00000000e+00	 5.19103127e+00	-4.40000000e-01	1.000	 35	 0	
 316	 1.03820625e+00	 5.19103127e+00	-4.40000000e-01	1.000	 35	 0	
 317	 2.07641251e+00	 5.19103127e+00	-4.40000000e-01	1.000	 35	 0	
 318	 3.11461876e+00	 5.19103127e+00	-4.40000000e-01	1.000	 35	 0	
 319	 4.15282502e+00	 5.19103127e+00	-4.40000000e-01	1.000	 35	 0	
 320	 5.19103127e+00	 5.19103127e+00	-4.40000000e-01	1.000	 35	 0	
 321	 6.22923753e+00	 5.19103127e+00	-4.40000000e-01	1.000	 35	 0	
 322	 7.26744378e+00	 5.19103127e+00	-4.40000000e-01	1.000	 35	 0	
 323	 8.30565003e+00	 5.19103127e+00	-4.40000000e-01	1.000	 35	 0	
 324	 9.34385629e+00	 5.19103127e+00	-4.40000000e-01	1.000	 35	 0	
 325	 1.03820625e+01	 5.19103127e+00	-4.40000000e-01	1.000	 35	 0	
 326	 1.14202688e+01	 5.19103127e+00	-4.40000000e-01	1.000	 35	 0	
 327	 1.24584751e+01	 5.19103127e+00	-4.40000000e-01	1.000	 35	 0	
 328	 1.34966813e+01	 5.19103127e+00	-4.40000000e-01	1.000	 35	 0	
 329	 1.45348876e+01	 5.19103127e+00	-4.40000000e-01	1.000	 35	 0	
 330	 1.55730938e+01	 5.19103127e+00	-4.40000000e-01	1.000	 35	 0	
 331	 1.66113001e+01	 5.19103127e+00	-4.40000000e-01	1.000	 35	 0	
 332	 1.76495063e+01	 5.19103127e+00	-4.40000000e-01	1.000	 35	 0	
 333	 1.86877126e+01	 5.19103127e+00	-4.40000000e-01	1.000	 35	 0	
 334	 1.97259188e+01	 5.19103127e+00	-4.40000000e-01	1.000	 35	 0	
 335	 2.07641251e+01	 5.19103127e+00	-4.40000000e-01	1.000	 35	 0	
 336	 2.18023313e+01	 5.19103127e+00	-4.40000000e-01	1.000	 35	 0	
 337	 2.28405376e+01	 5.19103127e+00	-4.40000000e-01	1.000	 35	 0	
 338	 2.38787438e+01	 5.19103127e+00	-4.40000000e-01	1.000	 35	 0	
 339	 2.49169501e+01	 5.19103127e+00	-4.40000000e-01	1.000	 35	 0	
 340	 2.59551564e+01	 5.19103127e+00	-4.40000000e-01	1.000	 35	 0	
 341	 2.69933626e+01	 5.19103127e+00	-4.40000000e-01	1.000	 35	 0	
 342	 2.80315689e+01	 5.19103127e+00	-4.40000000e-01	1.000	 35	 0	
 343	 2.90697751e+01	 5.19103127e+00	-4.40000000e-01	1.000	 35	 0	
 344	 3.01079814e+01	 5.19103127e+00	-4.40000000e-01	1.000	 35	 0	
 345	 3.11461876e+01	 5.19103127e+00	-4.40000000e-01	1.000	 35	 0	
 346	 3.21843939e+01	 5.19103127e+00	-4.40000000e-01	1.000	 35	 0	
 347	-3.21843939e+01	 5.19103127e+00	-4.40000000e-01	1.000	 35	 0	
 348	-3.11461876e+01	 5.19103127e+00	-4.40000000e-01	1.000	 35	 0	
 349	-3.01079814e+01	 5.19103127e+00	-4.40000000e-01	1.000	 35	 0	
 350	-2.90697751e+01	 5.19103127e+00	-4.40000000e-01	1.000	 35	 0	
 351	-2.80315689e+01	 5.19103127e+00	-4.40000000e-01	1.000	 35	 0	
 352	-2.69933626e+01	 5.19103127e+00	-4.40000000e-01	1.000	 35	 0	
 353	-2.59551564e+01	 5.19103127e+00	-4.40000000e-01	1.000	 35	 0	
 354	-2.49169501e+01	 5.19103127e+00	-4.40000000e-01	1.000	 35	 0	
 355	-2.38787438e+01	 5.19103127e+00	-4.40000000e-01	1.000	 35	 0	
 356	-2.28405376e+01	 5.19103127e+00	-4.40000000e-01	1.000	 35	 0	
 357	-2.18023313e+01	 5.19103127e+00	-4.40000000e-01	1.000	 35	 0	
 358	-2.07641251e+01	 5.19103127e+00	-4.40000000e-01	1.000	 35	 0	
 359	-1.97259188e+01	 5.19103127e+00	-4.40000000e-01	1.000	 35	 0	
 360	-1.86877126e+01	 5.19103127e+00	-4.40000000e-01	1.000	 35	 0	
 361	-1.76495063e+01	 5.19103127e+00	-4.40000000e-01	1.000	 35	 0	
 362	-1.66113001e+01	 5.19103127e+00	-4.40000000e-01	1.000	 35	 0	
 363	-1.55730938e+01	 5.19103127e+00	-4.40000000e-01	1.000	 35	 0	
 364	-1.45348876e+01	 5.19103127e+00	-4.40000000e-01	1.000	 35	 0	
 365	-1.34966813e+01	 5.19103127e+00	-4.40000000e-01	1.000	 35	 0	
 366	-1.24584751e+01	 5.19103127e+00	-4.40000000e-01	1.000	 35	 0	
 367	-1.14202688e+01	 5.19103127e+00	-4.40000000e-01	1.000	 35	 0	
 368	-1.03820625e+01	 5.19103127e+00	-4.40000000e-01	1.000	 35	 0	
 369	-9.34385629e+00	 5.19103127e+00	-4.40000000e-01	1.000	 35	 0	
 370	-8.30565003e+00	 5.19103127e+00	-4.40000000e-01	1.000	 35	 0	
 371	-7.26744378e+00	 5.19103127e+00	-4.40000000e-01	1.000	 35	 0	
 372	-6.22923753e+00	 5.19103127e+00	-4.40000000e-01	1.000	 35	 0	
 373	-5.19103127e+00	 5.19103127e+00	-4.40000000e-01	1.000	 35	 0	
 374	-4.15282502e+00	 5.19103127e+00	-4.40000000e-01	1.000	 35	 0	
 375	-3.11461876e+00	 5.19103127e+00	-4.40000000e-01	1.000	 35	 0	
 376	-2.07641251e+00	 5.19103127e+00	-4.40000000e-01	1.000	 35	 0	
 377	-1.03820625e+00	 5.19103127e+00	-4.40000000e-01	1.000	 35	 0	
 378	 0.00000000e+00	 6.22923753e+00	-4.40000000e-01	1.000	 35	 0	
 379	 1.03820625e+00	 6.22923753e+00	-4.40000000e-01	1.000	 35	 0	
 380	 2.07641251e+00	 6.22923753e+00	-4.40000000e-01	1.000	 35	 0	
 381	 3.11461876e+00	 6.22923753e+00	-4.40000000e-01	1.000	 35	 0	
 382	 4.15282502e+00	 6.22923753e+00	-4.40000000e-01	1.000	 35	 0	
 383	 5.19103127e+00	 6.22923753e+00	-4.40000000e-01	1.000	 35	 0	
 384	 6.22923753e+00	 6.22923753e+00	-4.40000000e-01	1.000	 35	 0	
 385	 7.26744378e+00	 6.22923753e+00	-4.40000000e-01	1.000	 35	 0	
 386	 8.30565003e+00	 6.22923753e+00	-4.40000000e-01	1.000	 35	 0	
 387	 9.34385629e+00	 6.22923753e+00	-4.40000000e-01	1.000	 35	 0	
 388	 1.03820625e+01	 6.22923753e+00	-4.40000000e-01	1.000	 35	 0	
 389	 1.14202688e+01	 6.22923753e+00	-4.40000000e-01	1.000	 35	 0	
 390	 1.24584751e+01	 6.22923753e+00	-4.40000000e-01	1.000	 35	 0	
 391	 1.34966813e+01	 6.22923753e+00	-4.40000000e-01	1.000	 35	 0	
 392	 1.45348876e+01	 6.22923753e+00	-4.40000000e-01	1.000	 35	 0	
 393	 1.55730938e+01	 6.22923753e+00	-4.40000000e-01	1.000	 35	 0	
 394	 1.66113001e+01	 6.22923753e+00	-4.40000000e-01	1.000	 35	 0	
 395	 1.76495063e+01	 6.22923753e+00	-4.40000000e-01	1.000	 35	 0	
 396	 1.86877126e+01	 6.22923753e+00	-4.40000000e-01	1.000	 35	 0	
 397	 1.97259188e+01	 6.22923753e+00	-4.40000000e-01	1.000	 35	 0	
 398	 2.07641251e+01	 6.22923753e+00	-4.40000000e-01	1.000	 35	 0	
 399	 2.18023313e+01	 6.22923753e+00	-4.40000000e-01	1.000	 35	 0	
 400	 2.28405376e+01	 6.22923753e+00	-4.40000000e-01	1.000	 35	 0	
 401	 2.38787438e+01	 6.22923753e+00	-4.40000000e-01	1.000	 35	 0	
 402	 2.49169501e+01	 6.22923753e+00	-4.40000000e-01	1.000	 35	 0	
 403	 2.59551564e+01	 6.22923753e+00	-4.40000000e-01	1.000	 35	 0	
 404	 2.69933626e+01	 6.22923753e+00	-4.40000000e-01	1.000	 35	 0	
 405	 2.80315689e+01	 6.22923753e+00	-4.40000000e-01	1.000	 35	 0	
 406	 2.90697751e+01	 6.22923753e+00	-4.40000000e-01	1.000	 35	 0	
 407	 3.01079814e+01	 6.22923753e+00	-4.40000000e-01	1.000	 35	 0	
 408	 3.11461876e+01	 6.22923753e+00	-4.40000000e-01	1.000	 35	 0	
 409	 3.21843939e+01	 6.22923753e+00	-4.40000000e-01	1.000	 35	 0	
 410	-3.21843939e+01	 6.22923753e+00	-4.40000000e-01	1.000	 35	 0	
 411	-3.11461876e+01	 6.22923753e+00	-4.40000000e-01	1.000	 35	 0	
 412	-3.01079814e+01	 6.22923753e+00	-4.40000000e-01	1.000	 35	 0	
 413	-2.90697751e+01	 6.22923753e+00	-4.40000000e-01	1.000	 35	 0	
 414	-2.80315689e+01	 6.22923753e+00	-4.40000000e-01	1.000	 35	 0	
 415	-2.69933626e+01	 6.22923753e+00	-4.40000000e-01	1.000	 35	 0	
 416	-2.59551564e+01	 6.22923753e+00	-4.40000000e-01	1.000	 35	 0	
 417	-2.49169501e+01	 6.22923753e+00	-4.40000000e-01	1.000	 35	 0	
 418	-2.38787438e+01	 6.22923753e+00	-4.40000000e-01	1.000	 35	 0	
 419	-2.28405376e+01	 6.22923753e+00	-4.40000000e-01	1.000	 35	 0	
 420	-2.18023313e+01	 6.22923753e+00	-4.40000000e-01	1.000	 35	 0	
 421	-2.07641251e+01	 6.22923753e+00	-4.40000000e-01	1.000	 35	 0	
 422	-1.97259188e+01	 6.22923753e+00	-4.40000000e-01	1.000	 35	 0	
 423	-1.86877126e+01	 6.22923753e+00	-4.40000000e-01	1.000	 35	 0	
 424	-1.76495063e+01	 6.22923753e+00	-4.40000000e-01	1.000	 35	 0	
 425	-1.66113001e+01	 6.22923753e+00	-4.40000000e-01	1.000	 35	 0	
 426	-1.55730938e+01	 6.22923753e+00	-4.40000000e-01	1.000	 35	 0	
 427	-1.45348876e+01	 6.22923753e+00	-4.40000000e-01	1.000	 35	 0	
 428	-1.34966813e+01	 6.22923753e+00	-4.40000000e-01	1.000	 35	 0	
 429	-1.24584751e+01	 6.22923753e+00	-4.40000000e-01	1.000	 35	 0	
 430	-1.14202688e+01	 6.22923753e+00	-4.40000000e-01	1.000	 35	 0	
 431	-1.03820625e+01	 6.22923753e+00	-4.40000000e-01	1.000	 35	 0	
 432	-9.34385629e+00	 6.22923753e+00	-4.40000000e-01	1.000	 35	 0	
 433	-8.30565003e+00	 6.22923753e+00	-4.40000000e-01	1.000	 35	 0	
 434	-7.26744378e+00	 6.22923753e+00	-4.40000000e-01	1.000	 35	 0	
 435	-6.22923753e+00	 6.22923753e+00	-4.40000000e-01	1.000	 35	 0	
 436	-5.19103127e+00	 6.22923753e+00	-4.40000000e-01	1.000	 35	 0	
 437	-4.15282502e+00	 6.22923753e+00	-4.40000000e-01	1.000	 35	 0	
 438	-3.11461876e+00	 6.22923753e+00	-4.40000000e-01	1.000	 35	 0	
 439	-2.07641251e+00	 6.22923753e+00	-4.40000000e-01	1.000	 35	 0	
 440	-1.03820625e+00	 6.22923753e+00	-4.40000000e-01	1.000	 35	 0	
 441	 0.00000000e+00	 7.26744378e+00	-4.40000000e-01	1.000	 35	 0	
 442	 1.03820625e+00	 7.26744378e+00	-4.40000000e-01	1.000	 35	 0	
 443	 2.07641251e+00	 7.26744378e+00	-4.40000000e-01	1.000	 35	 0	
 444	 3.11461876e+00	 7.26744378e+00	-4.40000000e-01	1.000	 35	 0	