ITEM: TIMESTEP
0
ITEM: BOX BOUNDS xx yy zz
-23.12486	 23.12486	
-23.12486	 23.12486	
-1.10000	 1.10000	
ITEM: NUMBER OF ATOMS
3872
ITEM: ATOMS index x y z diameter charge species
   0	 0.00000000e+00	 0.00000000e+00	-4.40000000e-01	1.000	 35	 0	
   1	 1.05113020e+00	 0.00000000e+00	-4.40000000e-01	1.000	 35	 0	
   2	 2.10226041e+00	 0.00000000e+00	-4.40000000e-01	1.000	 35	 0	
   3	 3.15339061e+00	 0.00000000e+00	-4.40000000e-01	1.000	 35	 0	
   4	 4.20452082e+00	 0.00000000e+00	-4.40000000e-01	1.000	 35	 0	
   5	 5.25565102e+00	 0.00000000e+00	-4.40000000e-01	1.000	 35	 0	
   6	 6.30678123e+00	 0.00000000e+00	-4.40000000e-01	1.000	 35	 0	
   7	 7.35791143e+00	 0.00000000e+00	-4.40000000e-01	1.000	 35	 0	
   8	 8.40904164e+00	 0.00000000e+00	-4.40000000e-01	1.000	 35	 0	
   9	 9.46017184e+00	 0.00000000e+00	-4.40000000e-01	1.000	 35	 0	
  10	 1.05113020e+01	 0.00000000e+00	-4.40000000e-01	1.000	 35	 0	
  11	 1.15624323e+01	 0.00000000e+00	-4.40000000e-01	1.000	 35	 0	
  12	 1.26135625e+01	 0.00000000e+00	-4.40000000e-01	1.000	 35	 0	
  13	 1.36646927e+01	 0.00000000e+00	-4.40000000e-01	1.000	 35	 0	
  14	 1.47158229e+01	 0.00000000e+00	-4.40000000e-01	1.000	 35	 0	
  15	 1.57669531e+01	 0.00000000e+00	-4.40000000e-01	1.000	 35	 0	
  16	 1.68180833e+01	 0.00000000e+00	-4.40000000e-01	1.000	 35	 0	
  17	 1.78692135e+01	 0.00000000e+00	-4.40000000e-01	1.000	 35	 0	
  18	 1.89203437e+01	 0.00000000e+00	-4.40000000e-01	1.000	 35	 0	
  19	 1.99714739e+01	 0.00000000e+00	-4.40000000e-01	1.000	 35	 0	
  20	 2.10226041e+01	 0.00000000e+00	-4.40000000e-01	1.000	 35	 0	
  21	 2.20737343e+01	 0.00000000e+00	-4.40000000e-01	1.000	 35	 0	
  22	-2.31248645e+01	 0.00000000e+00	-4.40000000e-01	1.000	 35	 0	
  23	-2.20737343e+01	 0.00000000e+00	-4.40000000e-01	1.000	 35	 0	
  24	-2.10226041e+01	 0.00000000e+00	-4.40000000e-01	1.000	 35	 0	
  25	-1.99714739e+01	 0.00000000e+00	-4.40000000e-01	1.000	 35	 0	
  26	-1.89203437e+01	 0.00000000e+00	-4.40000000e-01	1.000	 35	 0	
  27	-1.78692135e+01	 0.00000000e+00	-4.40000000e-01	1.000	 35	 0	
  28	-1.68180833e+01	 0.00000000e+00	-4.40000000e-01	1.000	 35	 0	
  29	-1.57669531e+01	 0.00000000e+00	-4.40000000e-01	1.000	 35	 0	
  30	-1.47158229e+01	 0.00000000e+00	-4.40000000e-01	1.000	 35	 0	
  31	-1.36646927e+01	 0.00000000e+00	-4.40000000e-01	1.000	 35	 0	
  32	-1.26135625e+01	 0.00000000e+00	-4.40000000e-01	1.000	 35	 0	
  33	-1.15624323e+01	 0.00000000e+00	-4.40000000e-01	1.000	 35	 0	
  34	-1.05113020e+01	 0.00000000e+00	-4.40000000e-01	1.000	 35	 0	
  35	-9.46017184e+00	 0.00000000e+00	-4.40000000e-01	1.000	 35	 0	
  36	-8.40904164e+00	 0.00000000e+00	-4.40000000e-01	1.000	 35	 0	
  37	-7.35791143e+00	 0.00000000e+00	-4.40000000e-01	1.000	 35	 0	
  38	-6.30678123e+00	 0.00000000e+00	-4.40000000e-01	1.000	 35	 0	
  39	-5.25565102e+00	 0.00000000e+00	-4.40000000e-01	1.000	 35	 0	
  40	-4.20452082e+00	 0.00000000e+00	-4.40000000e-01	1.000	 35	 0	
  41	-3.15339061e+00	 0.00000000e+00	-4.40000000e-01	1.000	 35	 0	
  42	-2.10226041e+00	 0.00000000e+00	-4.40000000e-01	1.000	 35	 0	
  43	-1.05113020e+00	 0.00000000e+00	-4.40000000e-01	1.000	 35	 0	
  44	 0.00000000e+00	 1.05113020e+00	-4.40000000e-01	1.000	 35	 0	
  45	 1.05113020e+00	 1.05113020e+00	-4.40000000e-01	1.000	 35	 0	
  46	 2.10226041e+00	 1.05113020e+00	-4.40000000e-01	1.000	 35	 0	
  47	 3.15339061e+00	 1.05113020e+00	-4.40000000e-01	1.000	 35	 0	
  48	 4.20452082e+00	 1.05113020e+00	-4.40000000e-01	1.000	 35	 0	
  49	 5.25565102e+00	 1.05113020e+00	-4.40000000e-01	1.000	 35	 0	
  50	 6.30678123e+00	 1.05113020e+00	-4.40000000e-01	1.000	 35	 0	
  51	 7.35791143e+00	 1.05113020e+00	-4.40000000e-01	1.000	 35	 0	
  52	 8.40904164e+00	 1.05113020e+00	-4.40000000e-01	1.000	 35	 0	
  53	 9.46017184e+00	 1.05113020e+00	-4.40000000e-01	1.000	 35	 0	
  54	 1.05113020e+01	 1.05113020e+00	-4.40000000e-01	1.000	 35	 0	
  55	 1.15624323e+01	 1.05113020e+00	-4.40000000e-01	1.000	 35	 0	
  56	 1.26135625e+01	 1.05113020e+00	-4.40000000e-01	1.000	 35	 0	
  57	 1.36646927e+01	 1.05113020e+00	-4.40000000e-01	1.000	 35	 0	
  58	 1.47158229e+01	 1.05113020e+00	-4.40000000e-01	1.000	 35	 0	
  59	 1.57669531e+01	 1.05113020e+00	-4.40000000e-01	1.000	 35	 0	
  60	 1.68180833e+01	 1.05113020e+00	-4.40000000e-01	1.000	 35	 0	
  61	 1.78692135e+01	 1.05113020e+00	-4.40000000e-01	1.000	 35	 0	
  62	 1.89203437e+01	 1.05113020e+00	-4.40000000e-01	1.000	 35	 0	
  63	 1.99714739e+01	 1.05113020e+00	-4.40000000e-01	1.000	 35	 0	
  64	 2.10226041e+01	 1.05113020e+00	-4.40000000e-01	1.000	 35	 0	
  65	 2.20737343e+01	 1.05113020e+00	-4.40000000e-01	1.000	 35	 0	
  66	-2.31248645e+01	 1.05113020e+00	-4.40000000e-01	1.000	 35	 0	
  67	-2.20737343e+01	 1.05113020e+00	-4.40000000e-01	1.000	 35	 0	
  68	-2.10226041e+01	 1.05113020e+00	-4.40000000e-01	1.000	 35	 0	
  69	-1.99714739e+01	 1.05113020e+00	-4.40000000e-01	1.000	 35	 0	
  70	-1.89203437e+01	 1.05113020e+00	-4.40000000e-01	1.000	 35	 0	
  71	-1.78692135e+01	 1.05113020e+00	-4.40000000e-01	1.000	 35	 0	
  72	-1.68180833e+01	 1.05113020e+00	-4.40000000e-01	1.000	 35	 0	
  73	-1.57669531e+01	 1.05113020e+00	-4.40000000e-01	1.000	 35	 0	
  74	-1.47158229e+01	 1.05113020e+00	-4.40000000e-01	1.000	 35	 0	
  75	-1.36646927e+01	 1.05113020e+00	-4.40000000e-01	1.000	 35	 0	
  76	-1.26135625e+01	 1.05113020e+00	-4.40000000e-01	1.000	 35	 0	
  77	-1.15624323e+01	 1.05113020e+00	-4.40000000e-01	1.000	 35	 0	
  78	-1.05113020e+01	 1.05113020e+00	-4.40000000e-01	1.000	 35	 0	
  79	-9.46017184e+00	 1.05113020e+00	-4.40000000e-01	1.000	 35	 0	
  80	-8.40904164e+00	 1.05113020e+00	-4.40000000e-01	1.000	 35	 0	
  81	-7.35791143e+00	 1.05113020e+00	-4.40000000e-01	1.000	 35	 0	
  82	-6.30678123e+00	 1.05113020e+00	-4.40000000e-01	1.000	 35	 0	
  83	-5.25565102e+00	 1.05113020e+00	-4.40000000e-01	1.000	 35	 0	
  84	-4.20452082e+00	 1.05113020e+00	-4.40000000e-01	1.000	 35	 0	
  85	-3.15339061e+00	 1.05113020e+00	-4.40000000e-01	1.000	 35	 0	
  86	-2.10226041e+00	 1.05113020e+00	-4.40000000e-01	1.000	 35	 0	
  87	-1.05113020e+00	 1.05113020e+00	-4.40000000e-01	1.000	 35	 0	
  88	 0.00000000e+00	 2.10226041e+00	-4.40000000e-01	1.000	 35	 0	
  89	 1.05113020e+00	 2.10226041e+00	-4.40000000e-01	1.000	 35	 0	
  90	 2.10226041e+00	 2.10226041e+00	-4.40000000e-01	1.000	 35	 0	
  91	 3.15339061e+00	 2.10226041e+00	-4.40000000e-01	1.000	 35	 0	
  92	 4.20452082e+00	 2.10226041e+00	-4.40000000e-01	1.000	 35	 0	
  93	 5.25565102e+00	 2.10226041e+00	-4.40000000e-01	1.000	 35	 0	
  94	 6.30678123e+00	 2.10226041e+00	-4.40000000e-01	1.000	 35	 0	
  95	 7.35791143e+00	 2.10226041e+00	-4.40000000e-01	1.000	 35	 0	
  96	 8.40904164e+00	 2.10226041e+00	-4.40000000e-01	1.000	 35	 0	
  97	 9.46017184e+00	 2.10226041e+00	-4.40000000e-01	1.000	 35	 0	
  98	 1.05113020e+01	 2.10226041e+00	-4.40000000e-01	1.000	 35	 0	
  99	 1.15624323e+01	 2.10226041e+00	-4.40000000e-01	1.000	 35	 0	
 100	 1.26135625e+01	 2.10226041e+00	-4.40000000e-01	1.000	 35	 0	
 101	 1.36646927e+01	 2.10226041e+00	-4.40000000e-01	1.000	 35	 0	
 102	 1.47158229e+01	 2.10226041e+00	-4.40000000e-01	1.000	 35	 0	
 103	 1.57669531e+01	 2.10226041e+00	-4.40000000e-01	1.000	 35	 0	
 104	 1.68180833e+01	 2.10226041e+00	-4.40000000e-01	1.000	 35	 0	
 105	 1.78692135e+01	 2.10226041e+00	-4.40000000e-01	1.000	 35	 0	
 106	 1.89203437e+01	 2.10226041e+00	-4.40000000e-01	1.000	 35	 0	
 107	 1.99714739e+01	 2.10226041e+00	-4.40000000e-01	1.000	 35	 0	
 108	 2.10226041e+01	 2.10226041e+00	-4.40000000e-01	1.000	 35	 0	
 109	 2.20737343e+01	 2.10226041e+00	-4.40000000e-01	1.000	 35	 0	
 110	-2.31248645e+01	 2.10226041e+00	-4.40000000e-01	1.000	 35	 0	
 111	-2.20737343e+01	 2.10226041e+00	-4.40000000e-01	1.000	 35	 0	
 112	-2.10226041e+01	 2.10226041e+00	-4.40000000e-01	1.000	 35	 0	
 113	-1.99714739e+01	 2.10226041e+00	-4.40000000e-01	1.000	 35	 0	
 114	-1.89203437e+01	 2.10226041e+00	-4.40000000e-01	1.000	 35	 0	
 115	-1.78692135e+01	 2.10226041e+00	-4.40000000e-01	1.000	 35	 0	
 116	-1.68180833e+01	 2.10226041e+00	-4.40000000e-01	1.000	 35	 0	
 117	-1.57669531e+01	 2.10226041e+00	-4.40000000e-01	1.000	 35	 0	
 118	-1.47158229e+01	 2.10226041e+00	-4.40000000e-01	1.000	 35	 0	
 119	-1.36646927e+01	 2.10226041e+00	-4.40000000e-01	1.000	 35	 0	
 120	-1.26135625e+01	 2.10226041e+00	-4.40000000e-01	1.000	 35	 0	
 121	-1.15624323e+01	 2.10226041e+00	-4.40000000e-01	1.000	 35	 0	
 122	-1.05113020e+01	 2.10226041e+00	-4.40000000e-01	1.000	 35	 0	
 123	-9.46017184e+00	 2.10226041e+00	-4.40000000e-01	1.000	 35	 0	
 124	-8.40904164e+00	 2.10226041e+00	-4.40000000e-01	1.000	 35	 0	
 125	-7.35791143e+00	 2.10226041e+00	-4.40000000e-01	1.000	 35	 0	
 126	-6.30678123e+00	 2.10226041e+00	-4.40000000e-01	1.000	 35	 0	
 127	-5.25565102e+00	 2.10226041e+00	-4.40000000e-01	1.000	 35	 0	
 128	-4.20452082e+00	 2.10226041e+00	-4.40000000e-01	1.000	 35	 0	
 129	-3.15339061e+00	 2.10226041e+00	-4.40000000e-01	1.000	 35	 0	
 130	-2.10226041e+00	 2.10226041e+00	-4.40000000e-01	1.000	 35	 0	
 131	-1.05113020e+00	 2.10226041e+00	-4.40000000e-01	1.000	 35	 0	
 132	 0.00000000e+00	 3.15339061e+00	-4.40000000e-01	1.000	 35	 0	
 133	 1.05113020e+00	 3.15339061e+00	-4.40000000e-01	1.000	 35	 0	
 134	 2.10226041e+00	 3.15339061e+00	-4.40000000e-01	1.000	 35	 0	
 135	 3.15339061e+00	 3.15339061e+00	-4.40000000e-01	1.000	 35	 0	
 136	 4.20452082e+00	 3.15339061e+00	-4.40000000e-01	1.000	 35	 0	
 137	 5.25565102e+00	 3.15339061e+00	-4.40000000e-01	1.000	 35	 0	
 138	 6.30678123e+00	 3.15339061e+00	-4.40000000e-01	1.000	 35	 0	
 139	 7.35791143e+00	 3.15339061e+00	-4.40000000e-01	1.000	 35	 0	
 140	 8.40904164e+00	 3.15339061e+00	-4.40000000e-01	1.000	 35	 0	
 141	 9.46017184e+00	 3.15339061e+00	-4.40000000e-01	1.000	 35	 0	
 142	 1.05113020e+01	 3.15339061e+00	-4.40000000e-01	1.000	 35	 0	
 143	 1.15624323e+01	 3.15339061e+00	-4.40000000e-01	1.000	 35	 0	
 144	 1.26135625e+01	 3.15339061e+00	-4.40000000e-01	1.000	 35	 0	
 145	 1.36646927e+01	 3.15339061e+00	-4.40000000e-01	1.000	 35	 0	
 146	 1.47158229e+01	 3.15339061e+00	-4.40000000e-01	1.000	 35	 0	
 147	 1.57669531e+01	 3.15339061e+00	-4.40000000e-01	1.000	 35	 0	
 148	 1.68180833e+01	 3.15339061e+00	-4.40000000e-01	1.000	 35	 0	
 149	 1.78692135e+01	 3.15339061e+00	-4.40000000e-01	1.000	 35	 0	
 150	 1.89203437e+01	 3.15339061e+00	-4.40000000e-01	1.000	 35	 0	
 151	 1.99714739e+01	 3.15339061e+00	-4.40000000e-01	1.000	 35	 0	
 152	 2.10226041e+01	 3.15339061e+00	-4.40000000e-01	1.000	 35	 0	
 153	 2.20737343e+01	 3.15339061e+00	-4.40000000e-01	1.000	 35	 0	
 154	-2.31248645e+01	 3.15339061e+00	-4.40000000e-01	1.000	 35	 0	
 155	-2.20737343e+01	 3.15339061e+00	-4.40000000e-01	1.000	 35	 0	
 156	-2.10226041e+01	 3.15339061e+00	-4.40000000e-01	1.000	 35	 0	
 157	-1.99714739e+01	 3.15339061e+00	-4.40000000e-01	1.000	 35	 0	
 158	-1.89203437e+01	 3.15339061e+00	-4.40000000e-01	1.000	 35	 0	
 159	-1.78692135e+01	 3.15339061e+00	-4.40000000e-01	1.000	 35	 0	
 160	-1.68180833e+01	 3.15339061e+00	-4.40000000e-01	1.000	 35	 0	
 161	-1.57669531e+01	 3.15339061e+00	-4.40000000e-01	1.000	 35	 0	
 162	-1.47158229e+01	 3.15339061e+00	-4.40000000e-01	1.000	 35	 0	
 163	-1.36646927e+01	 3.15339061e+00	-4.40000000e-01	1.000	 35	 0	
 164	-1.26135625e+01	 3.15339061e+00	-4.40000000e-01	1.000	 35	 0	
 165	-1.15624323e+01	 3.15339061e+00	-4.40000000e-01	1.000	 35	 0	
 166	-1.05113020e+01	 3.15339061e+00	-4.40000000e-01	1.000	 35	 0	
 167	-9.46017184e+00	 3.15339061e+00	-4.40000000e-01	1.000	 35	 0	
 168	-8.40904164e+00	 3.15339061e+00	-4.40000000e-01	1.000	 35	 0	
 169	-7.35791143e+00	 3.15339061e+00	-4.40000000e-01	1.000	 35	 0	
 170	-6.30678123e+00	 3.15339061e+00	-4.40000000e-01	1.000	 35	 0	
 171	-5.25565102e+00	 3.15339061e+00	-4.40000000e-01	1.000	 35	 0	
 172	-4.20452082e+00	 3.15339061e+00	-4.40000000e-01	1.000	 35	 0	
 173	-3.15339061e+00	 3.15339061e+00	-4.40000000e-01	1.000	 35	 0	
 174	-2.10226041e+00	 3.15339061e+00	-4.40000000e-01	1.000	 35	 0	
 175	-1.05113020e+00	 3.15339061e+00	-4.40000000e-01	1.000	 35	 0	
 176	 0.00000000e+00	 4.20452082e+00	-4.40000000e-01	1.000	 35	 0	
 177	 1.05113020e+00	 4.20452082e+00	-4.40000000e-01	1.000	 35	 0	
 178	 2.10226041e+00	 4.20452082e+00	-4.40000000e-01	1.000	 35	 0	
 179	 3.15339061e+00	 4.20452082e+00	-4.40000000e-01	1.000	 35	 0	
 180	 4.20452082e+00	 4.20452082e+00	-4.40000000e-01	1.000	 35	 0	
 181	 5.25565102e+00	 4.20452082e+00	-4.40000000e-01	1.000	 35	 0	
 182	 6.30678123e+00	 4.20452082e+00	-4.40000000e-01	1.000	 35	 0	
 183	 7.35791143e+00	 4.20452082e+00	-4.40000000e-01	1.000	 35	 0	
 184	 8.40904164e+00	 4.20452082e+00	-4.40000000e-01	1.000	 35	 0	
 185	 9.46017184e+00	 4.20452082e+00	-4.40000000e-01	1.000	 35	 0	
 186	 1.05113020e+01	 4.20452082e+00	-4.40000000e-01	1.000	 35	 0	
 187	 1.15624323e+01	 4.20452082e+00	-4.40000000e-01	1.000	 35	 0	
 188	 1.26135625e+01	 4.20452082e+00	-4.40000000e-01	1.000	 35	 0	
 189	 1.36646927e+01	 4.20452082e+00	-4.40000000e-01	1.000	 35	 0	
 190	 1.47158229e+01	 4.20452082e+00	-4.40000000e-01	1.000	 35	 0	
 191	 1.57669531e+01	 4.20452082e+00	-4.40000000e-01	1.000	 35	 0	
 192	 1.68180833e+01	 4.20452082e+00	-4.40000000e-01	1.000	 35	 0	
 193	 1.78692135e+01	 4.20452082e+00	-4.40000000e-01	1.000	 35	 0	
 194	 1.89203437e+01	 4.20452082e+00	-4.40000000e-01	1.000	 35	 0	
 195	 1.99714739e+01	 4.20452082e+00	-4.40000000e-01	1.000	 35	 0	
 196	 2.10226041e+01	 4.20452082e+00	-4.40000000e-01	1.000	 35	 0	
 197	 2.20737343e+01	 4.20452082e+00	-4.40000000e-01	1.000	 35	 0	
 198	-2.31248645e+01	 4.20452082e+00	-4.40000000e-01	1.000	 35	 0	
 199	-2.20737343e+01	 4.20452082e+00	-4.40000000e-01	1.000	 35	 0	
 200	-2.10226041e+01	 4.20452082e+00	-4.40000000e-01	1.000	 35	 0	
 201	-1.99714739e+01	 4.20452082e+00	-4.40000000e-01	1.000	 35	 0	
 202	-1.89203437e+01	 4.20452082e+00	-4.40000000e-01	1.000	 35	 0	
 203	-1.78692135e+01	 4.20452082e+00	-4.40000000e-01	1.000	 35	 0	
 204	-1.68180833e+01	 4.20452082e+00	-4.40000000e-01	1.000	 35	 0	
 205	-1.57669531e+01	 4.20452082e+00	-4.40000000e-01	1.000	 35	 0	
 206	-1.47158229e+01	 4.20452082e+00	-4.40000000e-01	1.000	 35	 0	
 207	-1.36646927e+01	 4.20452082e+00	-4.40000000e-01	1.000	 35	 0	
 208	-1.26135625e+01	 4.20452082e+00	-4.40000000e-01	1.000	 35	 0	
 209	-1.15624323e+01	 4.20452082e+00	-4.40000000e-01	1.000	 35	 0	
 210	-1.05113020e+01	 4.20452082e+00	-4.40000000e-01	1.000	 35	 0	
 211	-9.46017184e+00	 4.20452082e+00	-4.40000000e-01	1.000	 35	 0	
 212	-8.40904164e+00	 4.20452082e+00	-4.40000000e-01	1.000	 35	 0	
 213	-7.35791143e+00	 4.20452082e+00	-4.40000000e-01	1.000	 35	 0	
 214	-6.30678123e+00	 4.20452082e+00	-4.40000000e-01	1.000	 35	 0	
 215	-5.25565102e+00	 4.20452082e+00	-4.40000000e-01	1.000	 35	 0	
 216	-4.20452082e+00	 4.20452082e+00	-4.40000000e-01	1.000	 35	 0	
 217	-3.15339061e+00	 4.20452082e+00	-4.40000000e-01	1.000	 35	 0	
 218	-2.10226041e+00	 4.20452082e+00	-4.40000000e-01	1.000	 35	 0	
 219	-1.05113020e+00	 4.20452082e+00	-4.40000000e-01	1.000	 35	 0	
 220	 0.00000000e+00	 5.25565102e+00	-4.40000000e-01	1.000	 35	 0	
 221	 1.05113020e+00	 5.25565102e+00	-4.40000000e-01	1.000	 35	 0	
 222	 2.10226041e+00	 5.25565102e+00	-4.40000000e-01	1.000	 35	 0	
 223	 3.15339061e+00	 5.25565102e+00	-4.40000000e-01	1.000	 35	 0	
 224	 4.20452082e+00	 5.25565102e+00	-4.40000000e-01	1.000	 35	 0	
 225	 5.25565102e+00	 5.25565102e+00	-4.40000000e-01	1.000	 35	 0	
 226	 6.30678123e+00	 5.25565102e+00	-4.40000000e-01	1.000	 35	 0	
 227	 7.35791143e+00	 5.25565102e+00	-4.40000000e-01	1.000	 35	 0	
 228	 8.40904164e+00	 5.25565102e+00	-4.40000000e-01	1.000	 35	 0	
 229	 9.46017184e+00	 5.25565102e+00	-4.40000000e-01	1.000	 35	 0	
 230	 1.05113020e+01	 5.25565102e+00	-4.40000000e-01	1.000	 35	 0	
 231	 1.15624323e+01	 5.25565102e+00	-4.40000000e-01	1.000	 35	 0	
 232	 1.26135625e+01	 5.25565102e+00	-4.40000000e-01	1.000	 35	 0	
 233	 1.36646927e+01	 5.25565102e+00	-4.40000000e-01	1.000	 35	 0	
 234	 1.47158229e+01	 5.25565102e+00	-4.40000000e-01	1.000	 35	 0	
 235	 1.57669531e+01	 5.25565102e+00	-4.40000000e-01	1.000	 35	 0	
 236	 1.68180833e+01	 5.25565102e+00	-4.40000000e-01	1.000	 35	 0	
 237	 1.78692135e+01	 5.25565102e+00	-4.40000000e-01	1.000	 35	 0	
 238	 1.89203437e+01	 5.25565102e+00	-4.40000000e-01	1.000	 35	 0	
 239	 1.99714739e+01	 5.25565102e+00	-4.40000000e-01	1.000	 35	 0	
 240	 2.10226041e+01	 5.25565102e+00	-4.40000000e-01	1.000	 35	 0	
 241	 2.20737343e+01	 5.25565102e+00	-4.40000000e-01	1.000	 35	 0	
 242	-2.31248645e+01	 5.25565102e+00	-4.40000000e-01	1.000	 35	 0	
 243	-2.20737343e+01	 5.25565102e+00	-4.40000000e-01	1.000	 35	 0	
 244	-2.10226041e+01	 5.25565102e+00	-4.40000000e-01	1.000	 35	 0	
 245	-1.99714739e+01	 5.25565102e+00	-4.40000000e-01	1.000	 35	 0	
 246	-1.89203437e+01	 5.25565102e+00	-4.40000000e-01	1.000	 35	 0	
 247	-1.78692135e+01	 5.25565102e+00	-4.40000000e-01	1.000	 35	 0	
 248	-1.68180833e+01	 5.25565102e+00	-4.40000000e-01	1.000	 35	 0	
 249	-1.57669531e+01	 5.25565102e+00	-4.40000000e-01	1.000	 35	 0	
 250	-1.47158229e+01	 5.25565102e+00	-4.40000000e-01	1.000	 35	 0	
 251	-1.36646927e+01	 5.25565102e+00	-4.40000000e-01	1.000	 35	 0	
 252	-1.26135625e+01	 5.25565102e+00	-4.40000000e-01	1.000	 35	 0	
 253	-1.15624323e+01	 5.25565102e+00	-4.40000000e-01	1.000	 35	 0	
 254	-1.05113020e+01	 5.25565102e+00	-4.40000000e-01	1.000	 35	 0	
 255	-9.46017184e+00	 5.25565102e+00	-4.40000000e-01	1.000	 35	 0	
 256	-8.40904164e+00	 5.25565102e+00	-4.40000000e-01	1.000	 35	 0	
 257	-7.35791143e+00	 5.25565102e+00	-4.40000000e-01	1.000	 35	 0	
 258	-6.30678123e+00	 5.25565102e+00	-4.40000000e-01	1.000	 35	 0	
 259	-5.25565102e+00	 5.25565102e+00	-4.40000000e-01	1.000	 35	 0	
 260	-4.20452082e+00	 5.25565102e+00	-4.40000000e-01	1.000	 35	 0	
 261	-3.15339061e+00	 5.25565102e+00	-4.40000000e-01	1.000	 35	 0	
 262	-2.10226041e+00	 5.25565102e+00	-4.40000000e-01	1.000	 35	 0	
 263	-1.05113020e+00	 5.25565102e+00	-4.40000000e-01	1.000	 35	 0	
 264	 0.00000000e+00	 6.30678123e+00	-4.40000000e-01	1.000	 35	 0	
 265	 1.05113020e+00	 6.30678123e+00	-4.40000000e-01	1.000	 35	 0	
 266	 2.10226041e+00	 6.30678123e+00	-4.40000000e-01	1.000	 35	 0	
 267	 3.15339061e+00	 6.30678123e+00	-4.40000000e-01	1.000	 35	 0	
 268	 4.20452082e+00	 6.30678123e+00	-4.40000000e-01	1.000	 35	 0	
 269	 5.25565102e+00	 6.30678123e+00	-4.40000000e-01	1.000	 35	 0	
 270	 6.30678123e+00	 6.30678123e+00	-4.40000000e-01	1.000	 35	 0	
 271	 7.35791143e+00	 6.30678123e+00	-4.40000000e-01	1.000	 35	 0	
 272	 8.40904164e+00	 6.30678123e+00	-4.40000000e-01	1.000	 35	 0	
 273	 9.46017184e+00	 6.30678123e+00	-4.40000000e-01	1.000	 35	 0	
 274	 1.05113020e+01	 6.30678123e+00	-4.40000000e-01	1.000	 35	 0	
 275	 1.15624323e+01	 6.30678123e+00	-4.40000000e-01	1.000	 35	 0	
 276	 1.26135625e+01	 6.30678123e+00	-4.40000000e-01	1.000	 35	 0	
 277	 1.36646927e+01	 6.30678123e+00	-4.40000000e-01	1.000	 35	 0	
 278	 1.47158229e+01	 6.30678123e+00	-4.40000000e-01	1.000	 35	 0	
 279	 1.57669531e+01	 6.30678123e+00	-4.40000000e-01	1.000	 35	 0	
 280	 1.68180833e+01	 6.30678123e+00	-4.40000000e-01	1.000	 35	 0	
 281	 1.78692135e+01	 6.30678123e+00	-4.40000000e-01	1.000	 35	 0	
 282	 1.89203437e+01	 6.30678123e+00	-4.40000000e-01	1.000	 35	 0	
 283	 1.99714739e+01	 6.30678123e+00	-4.40000000e-01	1.000	 35	 0	
 284	 2.10226041e+01	 6.30678123e+00	-4.40000000e-01	1.000	 35	 0	
 285	 2.20737343e+01	 6.30678123e+00	-4.40000000e-01	1.000	 35	 0	
 286	-2.31248645e+01	 6.30678123e+00	-4.40000000e-01	1.000	 35	 0	
 287	-2.20737343e+01	 6.30678123e+00	-4.40000000e-01	1.000	 35	 0	
 288	-2.10226041e+01	 6.30678123e+00	-4.40000000e-01	1.000	 35	 0	
 289	-1.99714739e+01	 6.30678123e+00	-4.40000000e-01	1.000	 35	 0	
 290	-1.89203437e+01	 6.30678123e+00	-4.40000000e-01	1.000	 35	 0	
 291	-1.78692135e+01	 6.30678123e+00	-4.40000000e-01	1.000	 35	 0	
 292	-1.68180833e+01	 6.30678123e+00	-4.40000000e-01	1.000	 35	 0	
 293	-1.57669531e+01	 6.30678123e+00	-4.40000000e-01	1.000	 35	 0	
 294	-1.47158229e+01	 6.30678123e+00	-4.40000000e-01	1.000	 35	 0	
 295	-1.36646927e+01	 6.30678123e+00	-4.40000000e-01	1.000	 35	 0	
 296	-1.26135625e+01	 6.30678123e+00	-4.40000000e-01	1.000	 35	 0	
 297	-1.15624323e+01	 6.30678123e+00	-4.40000000e-01	1.000	 35	 0	
 298	-1.05113020e+01	 6.30678123e+00	-4.40000000e-01	1.000	 35	 0	
 299	-9.46017184e+00	 6.30678123e+00	-4.40000000e-01	1.000	 35	 0	
 300	-8.40904164e+00	 6.30678123e+00	-4.40000000e-01	1.000	 35	 0	
 301	-7.35791143e+00	 6.30678123e+00	-4.40000000e-01	1.000	 35	 0	
 302	-6.30678123e+00	 6.30678123e+00	-4.40000000e-01	1.000	 35	 0	
 303	-5.25565102e+00	 6.30678123e+00	-4.40000000e-01	1.000	 35	 0	
 304	-4.20452082e+00	 6.30678123e+00	-4.40000000e-01	1.000	 35	 0	
 305	-3.15339061e+00	 6.30678123e+00	-4.40000000e-01	1.000	 35	 0	
 306	-2.10226041e+00	 6.30678123e+00	-4.40000000e-01	1.000	 35	 0	
 307	-1.05113020e+00	 6.30678123e+00	-4.40000000e-01	1.000	 35	 0	
 308	 0.00000000e+00	 7.35791143e+00	-4.40000000e-01	1.000	 35	 0	
 309	 1.05113020e+00	 7.35791143e+00	-4.40000000e-01	1.000	 35	 0	
 310	 2.10226041e+00	 7.35791143e+00	-4.40000000e-01	1.000	 35	 0	
 311	 3.15339061e+00	 7.35791143e+00	-4.40000000e-01	1.000	 35	 0	
 312	 4.20452082e+00	 7.35791143e+00	-4.40000000e-01	1.000	 35	 0	
 313	 5.25565102e+00	 7.35791143e+00	-4.40000000e-01	1.000	 35	 0	
 314	 6.30678123e+00	 7.35791143e+00	-4.40000000e-01	1.000	 35	 0	
 315	 7.35791143e+00	 7.35791143e+00	-4.40000000e-01	1.000	 35	 0	
 316	 8.40904164e+00	 7.35791143e+00	-4.40000000e-01	1.000	 35	 0	
 317	 9.46017184e+00	 7.35791143e+00	-4.40000000e-01	1.000	 35	 0	
 318	 1.05113020e+01	 7.35791143e+00	-4.40000000e-01	1.000	 35	 0	
 319	 1.15624323e+01	 7.35791143e+00	-4.40000000e-01	1.000	 35	 0	
 320	 1.26135625e+01	 7.35791143e+00	-4.40000000e-01	1.000	 35	 0	
 321	 1.36646927e+01	 7.35791143e+00	-4.40000000e-01	1.000	 35	 0	
 322	 1.47158229e+01	 7.35791143e+00	-4.40000000e-01	1.000	 35	 0	
 323	 1.57669531e+01	 7.35791143e+00	-4.40000000e-01	1.000	 35	 0	
 324	 1.68180833e+01	 7.35791143e+00	-4.40000000e-01	1.000	 35	 0	
 325	 1.78692135e+01	 7.35791143e+00	-4.40000000e-01	1.000	 35	 0	
 326	 1.89203437e+01	 7.35791143e+00	-4.40000000e-01	1.000	 35	 0	
 327	 1.99714739e+01	 7.35791143e+00	-4.40000000e-01	1.000	 35	 0	
 328	 2.10226041e+01	 7.35791143e+00	-4.40000000e-01	1.000	 35	 0	
 329	 2.20737343e+01	 7.35791143e+00	-4.40000000e-01	1.000	 35	 0	
 330	-2.31248645e+01	 7.35791143e+00	-4.40000000e-01	1.000	 35	 0	
 331	-2.20737343e+01	 7.35791143e+00	-4.40000000e-01	1.000	 35	 0	
 332	-2.10226041e+01	 7.35791143e+00	-4.40000000e-01	1.000	 35	 0	
 333	-1.99714739e+01	 7.35791143e+00	-4.40000000e-01	1.000	 35	 0	
 334	-1.89203437e+01	 7.35791143e+00	-4.40000000e-01	1.000	 35	 0	
 335	-1.78692135e+01	 7.35791143e+00	-4.40000000e-01	1.000	 35	 0	
 336	-1.68180833e+01	 7.35791143e+00	-4.40000000e-01	1.000	 35	 0	
 337	-1.57669531e+01	 7.35791143e+00	-4.40000000e-01	1.000	 35	 0	
 338	-1.47158229e+01	 7.35791143e+00	-4.40000000e-01	1.000	 35	 0	
 339	-1.36646927e+01	 7.35791143e+00	-4.40000000e-01	1.000	 35	 0	
 340	-1.26135625e+01	 7.35791143e+00	-4.40000000e-01	1.000	 35	 0	
 341	-1.15624323e+01	 7.35791143e+00	-4.40000000e-01	1.000	 35	 0	
 342	-1.05113020e+01	 7.35791143e+00	-4.40000000e-01	1.000	 35	 0	
 343	-9.46017184e+00	 7.35791143e+00	-4.40000000e-01	1.000	 35	 0	
 344	-8.40904164e+00	 7.35791143e+00	-4.40000000e-01	1.000	 35	 0	
 345	-7.35791143e+00	 7.35791143e+00	-4.40000000e-01	1.000	 35	 0	
 346	-6.30678123e+00	 7.35791143e+00	-4.40000000e-01	1.000	 35	 0	
 347	-5.25565102e+00	 7.35791143e+00	-4.40000000e-01	1.000	 35	 0	
 348	-4.20452082e+00	 7.35791143e+00	-4.40000000e-01	1.000	 35	 0	
 349	-3.15339061e+00	 7.35791143e+00	-4.40000000e-01	1.000	 35	 0	
 350	-2.10226041e+00	 7.35791143e+00	-4.40000000e-01	1.000	 35	 0	
 351	-1.05113020e+00	 7.35791143e+00	-4.40000000e-01	1.000	 35	 0	
 352	 0.00000000e+00	 8.40904164e+00	-4.40000000e-01	1.000	 35	 0	
 353	 1.05113020e+00	 8.40904164e+00	-4.40000000e-01	1.000	 35	 0	
 354	 2.10226041e+00	 8.40904164e+00	-4.40000000e-01	1.000	 35	 0	
 355	 3.15339061e+00	 8.40904164e+00	-4.40000000e-01	1.000	 35	 0	
 356	 4.20452082e+00	 8.40904164e+00	-4.40000000e-01	1.000	 35	 0	
 357	 5.25565102e+00	 8.40904164e+00	-4.40000000e-01	1.000	 35	 0	
 358	 6.30678123e+00	 8.40904164e+00	-4.40000000e-01	1.000	 35	 0	
 359	 7.35791143e+00	 8.40904164e+00	-4.40000000e-01	1.000	 35	 0	
 360	 8.40904164e+00	 8.40904164e+00	-4.40000000e-01	1.000	 35	 0	
 361	 9.46017184e+00	 8.40904164e+00	-4.40000000e-01	1.000	 35	 0	
 362	 1.05113020e+01	 8.40904164e+00	-4.40000000e-01	1.000	 35	 0	
 363	 1.15624323e+01	 8.40904164e+00	-4.40000000e-01	1.000	 35	 0	
 364	 1.26135625e+01	 8.40904164e+00	-4.40000000e-01	1.000	 35	 0	
 365	 1.36646927e+01	 8.40904164e+00	-4.40000000e-01	1.000	 35	 0	
 366	 1.47158229e+01	 8.40904164e+00	-4.40000000e-01	1.000	 35	 0	
 367	 1.57669531e+01	 8.40904164e+00	-4.40000000e-01	1.000	 35	 0	
 368	 1.68180833e+01	 8.40904164e+00	-4.40000000e-01	1.000	 35	 0	
 369	 1.78692135e+01	 8.40904164e+00	-4.40000000e-01	1.000	 35	 0	
 370	 1.89203437e+01	 8.40904164e+00	-4.40000000e-01	1.000	 35	 0	
 371	 1.99714739e+01	 8.40904164e+00	-4.40000000e-01	1.000	 35	 0	
 372	 2.10226041e+01	 8.40904164e+00	-4.40000000e-01	1.000	 35	 0	
 373	 2.20737343e+01	 8.40904164e+00	-4.40000000e-01	1.000	 35	 0	
 374	-2.31248645e+01	 8.40904164e+00	-4.40000000e-01	1.000	 35	 0	
 375	-2.20737343e+01	 8.40904164e+00	-4.40000000e-01	1.000	 35	 0	
 376	-2.10226041e+01	 8.40904164e+00	-4.40000000e-01	1.000	 35	 0	
 377	-1.99714739e+01	 8.40904164e+00	-4.40000000e-01	1.000	 35	 0	
 378	-1.89203437e+01	 8.40904164e+00	-4.40000000e-01	1.000	 35	 0	
 379	-1.78692135e+01	 8.40904164e+00	-4.40000000e-01	1.000	 35	 0	
 380	-1.68180833e+01	 8.40904164e+00	-4.40000000e-01	1.000	 35	 0	
 381	-1.57669531e+01	 8.40904164e+00	-4.40000000e-01	1.000	 35	 0	
 382	-1.47158229e+01	 8.40904164e+00	-4.40000000e-01	1.000	 35	 0	
 383	-1.36646927e+01	 8.40904164e+00	-4.40000000e-01	1.000	 35	 0	
 384	-1.26135625e+01	 8.40904164e+00	-4.40000000e-01	1.000	 35	 0	
 385	-1.15624323e+01	 8.40904164e+00	-4.40000000e-01	1.000	 35	 0	
 386	-1.05113020e+01	 8.40904164e+00	-4.40000000e-01	1.000	 35	 0	
 387	-9.46017184e+00	 8.40904164e+00	-4.40000000e-01	1.000	 35	 0	
 388	-8.40904164e+00	 8.40904164e+00	-4.40000000e-01	1.000	 35	 0	
 389	-7.35791143e+00	 8.40904164e+00	-4.40000000e-01	1.000	 35	 0	
 390	-6.30678123e+00	 8.40904164e+00	-4.40000000e-01	1.000	 35	 0	
 391	-5.25565102e+00	 8.40904164e+00	-4.40000000e-01	1.000	 35	 0	
 392	-4.20452082e+00	 8.40904164e+00	-4.40000000e-01	1.000	 35	 0	
 393	-3.15339061e+00	 8.40904164e+00	-4.40000000e-01	1.000	 35	 0	
 394	-2.10226041e+00	 8.40904164e+00	-4.40000000e-01	1.000	 35	 0	
 395	-1.05113020e+00	 8.40904164e+00	-4.40000000e-01	1.000	 35	 0	
 396	 0.00000000e+00	 9.46017184e+00	-4.40000000e-01	1.000	 35	 0	
 397	 1.05113020e+00	 9.46017184e+00	-4.40000000e-01	1.000	 35	 0	
 398	 2.10226041e+00	 9.46017184e+00	-4.40000000e-01	1.000	 35	 0	
 399	 3.15339061e+00	 9.46017184e+00	-4.40000000e-01	1.000	 35	 0	
 400	 4.20452082e+00	 9.46017184e+00	-4.40000000e-01	1.000	 35	 0	
 401	 5.25565102e+00	 9.46017184e+00	-4.40000000e-01	1.000	 35	 0	
 402	 6.30678123e+00	 9.46017184e+00	-4.40000000e-01	1.000	 35	 0	
 403	 7.35791143e+00	 9.46017184e+00	-4.40000000e-01	1.000	 35	 0	
 404	 8.40904164e+00	 9.46017184e+00	-4.40000000e-01	1.000	 35	 0	
 405	 9.46017184e+00	 9.46017184e+00	-4.40000000e-01	1.000	 35	 0	
 406	 1.05113020e+01	 9.46017184e+00	-4.40000000e-01	1.000	 35	 0	
 407	 1.15624323e+01	 9.46017184e+00	-4.40000000e-01	1.000	 35	 0	
 408	 1.26135625e+01	 9.46017184e+00	-4.40000000e-01	1.000	 35	 0	
 409	 1.36646927e+01	 9.46017184e+00	-4.40000000e-01	1.000	 35	 0	
 410	 1.47158229e+01	 9.46017184e+00	-4.40000000e-01	1.000	 35	 0	
 411	 1.57669531e+01	 9.46017184e+00	-4.40000000e-01	1.000	 35	 0	
 412	 1.68180833e+01	 9.46017184e+00	-4.40000000e-01	1.000	 35	 0	
 413	 1.78692135e+01	 9.46017184e+00	-4.40000000e-01	1.000	 35	 0	
 414	 1.89203437e+01	 9.46017184e+00	-4.40000000e-01	1.000	 35	 0	
 415	 1.99714739e+01	 9.46017184e+00	-4.40000000e-01	1.000	 35	 0	
 416	 2.10226041e+01	 9.46017184e+00	-4.40000000e-01	1.000	 35	 0	
 417	 2.20737343e+01	 9.46017184e+00	-4.40000000e-01	1.000	 35	 0	
 418	-2.31248645e+01	 9.46017184e+00	-4.40000000e-01	1.000	 35	 0	
 419	-2.20737343e+01	 9.46017184e+00	-4.40000000e-01	1.000	 35	 0	
 420	-2.10226041e+01	 9.46017184e+00	-4.40000000e-01	1.000	 35	 0	
 421	-1.99714739e+01	 9.46017184e+00	-4.40000000e-01	1.000	 35	 0	
 422	-1.89203437e+01	 9.46017184e+00	-4.40000000e-01	1.000	 35	 0	
 423	-1.78692135e+01	 9.46017184e+00	-4.40000000e-01	1.000	 35	 0	
 424	-1.68180833e+01	 9.46017184e+00	-4.40000000e-01	1.000	 35	 0	
 425	-1.57669531e+01	 9.46017184e+00	-4.40000000e-01	1.000	 35	 0	
 426	-1.47158229e+01	 9.46017184e+00	-4.40000000e-01	1.000	 35	 0	
 427	-1.36646927e+01	 9.46017184e+00	-4.40000000e-01	1.000	 35	 0	
 428	-1.26135625e+01	 9.46017184e+00	-4.40000000e-01	1.000	 35	 0	
 429	-1.15624323e+01	 9.46017184e+00	-4.40000000e-01	1.000	 35	 0	
 430	-1.05113020e+01	 9.46017184e+00	-4.40000000e-01	1.000	 35	 0	
 431	-9.46017184e+00	 9.46017184e+00	-4.40000000e-01	1.000	 35	 0	
 432	-8.40904164e+00	 9.46017184e+00	-4.40000000e-01	1.000	 35	 0	
 433	-7.35791143e+00	 9.46017184e+00	-4.40000000e-01	1.000	 35	 0	
 434	-6.30678123e+00	 9.46017184e+00	-4.40000000e-01	1.000	 35	 0	
 435	-5.25565102e+00	 9.46017184e+00	-4.40000000e-01	1.000	 35	 0	
 436	-4.20452082e+00	 9.46017184e+00	-4.40000000e-01	1.000	 35	 0	
 437	-3.15339061e+00	 9.46017184e+00	-4.40000000e-01	1.000	 35	 0	
 438	-2.10226041e+00	 9.46017184e+00	-4.40000000e-01	1.000	 35	 0	
 439	-1.05113020e+00	 9.46017184e+00	-4.40000000e-01	1.000	 35	 0	
 440	 0.00000000e+00	 1.05113020e+01	-4.40000000e-01	1.000	 35	 0	
 441	 1.05113020e+00	 1.05113020e+01	-4.40000000e-01	1.000	 35	 0	
 442	 2.10226041e+00	 1.05113020e+01	-4.40000000e-01	1.000	 35	 0	
 443	 3.15339061e+00	 1.05113020e+01	-4.40000000e-01	1.000	 35	 0	
 444	 4.20452082e+00	 1.05113020e+01	-4.40000000e-01	1.000	 35	 0	