ITEM: TIMESTEP
0
ITEM: BOX BOUNDS pp pp ff
-2.27518584e+01	 2.27518584e+01	
-2.27518584e+01	 2.27518584e+01	
-1.10000000e+00	 1.10000000e+00	
ITEM: NUMBER OF ATOMS
3872
ITEM: ATOMS index x y z diameter charge species
   0	 0.00000000e+00	 0.00000000e+00	-4.40000000e-01	1.000	 35	 0	
   1	 1.03417538e+00	 0.00000000e+00	-4.40000000e-01	1.000	 35	 0	
   2	 2.06835076e+00	 0.00000000e+00	-4.40000000e-01	1.000	 35	 0	
   3	 3.10252614e+00	 0.00000000e+00	-4.40000000e-01	1.000	 35	 0	
   4	 4.13670152e+00	 0.00000000e+00	-4.40000000e-01	1.000	 35	 0	
   5	 5.17087690e+00	 0.00000000e+00	-4.40000000e-01	1.000	 35	 0	
   6	 6.20505228e+00	 0.00000000e+00	-4.40000000e-01	1.000	 35	 0	
   7	 7.23922766e+00	 0.00000000e+00	-4.40000000e-01	1.000	 35	 0	
   8	 8.27340304e+00	 0.00000000e+00	-4.40000000e-01	1.000	 35	 0	
   9	 9.30757842e+00	 0.00000000e+00	-4.40000000e-01	1.000	 35	 0	
  10	 1.03417538e+01	 0.00000000e+00	-4.40000000e-01	1.000	 35	 0	
  11	 1.13759292e+01	 0.00000000e+00	-4.40000000e-01	1.000	 35	 0	
  12	 1.24101046e+01	 0.00000000e+00	-4.40000000e-01	1.000	 35	 0	
  13	 1.34442799e+01	 0.00000000e+00	-4.40000000e-01	1.000	 35	 0	
  14	 1.44784553e+01	 0.00000000e+00	-4.40000000e-01	1.000	 35	 0	
  15	 1.55126307e+01	 0.00000000e+00	-4.40000000e-01	1.000	 35	 0	
  16	 1.65468061e+01	 0.00000000e+00	-4.40000000e-01	1.000	 35	 0	
  17	 1.75809815e+01	 0.00000000e+00	-4.40000000e-01	1.000	 35	 0	
  18	 1.86151568e+01	 0.00000000e+00	-4.40000000e-01	1.000	 35	 0	
  19	 1.96493322e+01	 0.00000000e+00	-4.40000000e-01	1.000	 35	 0	
  20	 2.06835076e+01	 0.00000000e+00	-4.40000000e-01	1.000	 35	 0	
  21	 2.17176830e+01	 0.00000000e+00	-4.40000000e-01	1.000	 35	 0	
  22	 2.27518584e+01	 0.00000000e+00	-4.40000000e-01	1.000	 35	 0	
  23	 2.37860337e+01	 0.00000000e+00	-4.40000000e-01	1.000	 35	 0	
  24	 2.48202091e+01	 0.00000000e+00	-4.40000000e-01	1.000	 35	 0	
  25	 2.58543845e+01	 0.00000000e+00	-4.40000000e-01	1.000	 35	 0	
  26	 2.68885599e+01	 0.00000000e+00	-4.40000000e-01	1.000	 35	 0	
  27	 2.79227353e+01	 0.00000000e+00	-4.40000000e-01	1.000	 35	 0	
  28	 2.89569106e+01	 0.00000000e+00	-4.40000000e-01	1.000	 35	 0	
  29	 2.99910860e+01	 0.00000000e+00	-4.40000000e-01	1.000	 35	 0	
  30	 3.10252614e+01	 0.00000000e+00	-4.40000000e-01	1.000	 35	 0	
  31	 3.20594368e+01	 0.00000000e+00	-4.40000000e-01	1.000	 35	 0	
  32	 3.30936122e+01	 0.00000000e+00	-4.40000000e-01	1.000	 35	 0	
  33	 3.41277875e+01	 0.00000000e+00	-4.40000000e-01	1.000	 35	 0	
  34	 3.51619629e+01	 0.00000000e+00	-4.40000000e-01	1.000	 35	 0	
  35	 3.61961383e+01	 0.00000000e+00	-4.40000000e-01	1.000	 35	 0	
  36	 3.72303137e+01	 0.00000000e+00	-4.40000000e-01	1.000	 35	 0	
  37	 3.82644891e+01	 0.00000000e+00	-4.40000000e-01	1.000	 35	 0	
  38	 3.92986644e+01	 0.00000000e+00	-4.40000000e-01	1.000	 35	 0	
  39	 4.03328398e+01	 0.00000000e+00	-4.40000000e-01	1.000	 35	 0	
  40	 4.13670152e+01	 0.00000000e+00	-4.40000000e-01	1.000	 35	 0	
  41	 4.24011906e+01	 0.00000000e+00	-4.40000000e-01	1.000	 35	 0	
  42	 4.34353660e+01	 0.00000000e+00	-4.40000000e-01	1.000	 35	 0	
  43	 4.44695413e+01	 0.00000000e+00	-4.40000000e-01	1.000	 35	 0	
  44	 0.00000000e+00	 1.03417538e+00	-4.40000000e-01	1.000	 35	 0	
  45	 1.03417538e+00	 1.03417538e+00	-4.40000000e-01	1.000	 35	 0	
  46	 2.06835076e+00	 1.03417538e+00	-4.40000000e-01	1.000	 35	 0	
  47	 3.10252614e+00	 1.03417538e+00	-4.40000000e-01	1.000	 35	 0	
  48	 4.13670152e+00	 1.03417538e+00	-4.40000000e-01	1.000	 35	 0	
  49	 5.17087690e+00	 1.03417538e+00	-4.40000000e-01	1.000	 35	 0	
  50	 6.20505228e+00	 1.03417538e+00	-4.40000000e-01	1.000	 35	 0	
  51	 7.23922766e+00	 1.03417538e+00	-4.40000000e-01	1.000	 35	 0	
  52	 8.27340304e+00	 1.03417538e+00	-4.40000000e-01	1.000	 35	 0	
  53	 9.30757842e+00	 1.03417538e+00	-4.40000000e-01	1.000	 35	 0	
  54	 1.03417538e+01	 1.03417538e+00	-4.40000000e-01	1.000	 35	 0	
  55	 1.13759292e+01	 1.03417538e+00	-4.40000000e-01	1.000	 35	 0	
  56	 1.24101046e+01	 1.03417538e+00	-4.40000000e-01	1.000	 35	 0	
  57	 1.34442799e+01	 1.03417538e+00	-4.40000000e-01	1.000	 35	 0	
  58	 1.44784553e+01	 1.03417538e+00	-4.40000000e-01	1.000	 35	 0	
  59	 1.55126307e+01	 1.03417538e+00	-4.40000000e-01	1.000	 35	 0	
  60	 1.65468061e+01	 1.03417538e+00	-4.40000000e-01	1.000	 35	 0	
  61	 1.75809815e+01	 1.03417538e+00	-4.40000000e-01	1.000	 35	 0	
  62	 1.86151568e+01	 1.03417538e+00	-4.40000000e-01	1.000	 35	 0	
  63	 1.96493322e+01	 1.03417538e+00	-4.40000000e-01	1.000	 35	 0	
  64	 2.06835076e+01	 1.03417538e+00	-4.40000000e-01	1.000	 35	 0	
  65	 2.17176830e+01	 1.03417538e+00	-4.40000000e-01	1.000	 35	 0	
  66	 2.27518584e+01	 1.03417538e+00	-4.40000000e-01	1.000	 35	 0	
  67	 2.37860337e+01	 1.03417538e+00	-4.40000000e-01	1.000	 35	 0	
  68	 2.48202091e+01	 1.03417538e+00	-4.40000000e-01	1.000	 35	 0	
  69	 2.58543845e+01	 1.03417538e+00	-4.40000000e-01	1.000	 35	 0	
  70	 2.68885599e+01	 1.03417538e+00	-4.40000000e-01	1.000	 35	 0	
  71	 2.79227353e+01	 1.03417538e+00	-4.40000000e-01	1.000	 35	 0	
  72	 2.89569106e+01	 1.03417538e+00	-4.40000000e-01	1.000	 35	 0	
  73	 2.99910860e+01	 1.03417538e+00	-4.40000000e-01	1.000	 35	 0	
  74	 3.10252614e+01	 1.03417538e+00	-4.40000000e-01	1.000	 35	 0	
  75	 3.20594368e+01	 1.03417538e+00	-4.40000000e-01	1.000	 35	 0	
  76	 3.30936122e+01	 1.03417538e+00	-4.40000000e-01	1.000	 35	 0	
  77	 3.41277875e+01	 1.03417538e+00	-4.40000000e-01	1.000	 35	 0	
  78	 3.51619629e+01	 1.03417538e+00	-4.40000000e-01	1.000	 35	 0	
  79	 3.61961383e+01	 1.03417538e+00	-4.40000000e-01	1.000	 35	 0	
  80	 3.72303137e+01	 1.03417538e+00	-4.40000000e-01	1.000	 35	 0	
  81	 3.82644891e+01	 1.03417538e+00	-4.40000000e-01	1.000	 35	 0	
  82	 3.92986644e+01	 1.03417538e+00	-4.40000000e-01	1.000	 35	 0	
  83	 4.03328398e+01	 1.03417538e+00	-4.40000000e-01	1.000	 35	 0	
  84	 4.13670152e+01	 1.03417538e+00	-4.40000000e-01	1.000	 35	 0	
  85	 4.24011906e+01	 1.03417538e+00	-4.40000000e-01	1.000	 35	 0	
  86	 4.34353660e+01	 1.03417538e+00	-4.40000000e-01	1.000	 35	 0	
  87	 4.44695413e+01	 1.03417538e+00	-4.40000000e-01	1.000	 35	 0	
  88	 0.00000000e+00	 2.06835076e+00	-4.40000000e-01	1.000	 35	 0	
  89	 1.03417538e+00	 2.06835076e+00	-4.40000000e-01	1.000	 35	 0	
  90	 2.06835076e+00	 2.06835076e+00	-4.40000000e-01	1.000	 35	 0	
  91	 3.10252614e+00	 2.06835076e+00	-4.40000000e-01	1.000	 35	 0	
  92	 4.13670152e+00	 2.06835076e+00	-4.40000000e-01	1.000	 35	 0	
  93	 5.17087690e+00	 2.06835076e+00	-4.40000000e-01	1.000	 35	 0	
  94	 6.20505228e+00	 2.06835076e+00	-4.40000000e-01	1.000	 35	 0	
  95	 7.23922766e+00	 2.06835076e+00	-4.40000000e-01	1.000	 35	 0	
  96	 8.27340304e+00	 2.06835076e+00	-4.40000000e-01	1.000	 35	 0	
  97	 9.30757842e+00	 2.06835076e+00	-4.40000000e-01	1.000	 35	 0	
  98	 1.03417538e+01	 2.06835076e+00	-4.40000000e-01	1.000	 35	 0	
  99	 1.13759292e+01	 2.06835076e+00	-4.40000000e-01	1.000	 35	 0	
 100	 1.24101046e+01	 2.06835076e+00	-4.40000000e-01	1.000	 35	 0	
 101	 1.34442799e+01	 2.06835076e+00	-4.40000000e-01	1.000	 35	 0	
 102	 1.44784553e+01	 2.06835076e+00	-4.40000000e-01	1.000	 35	 0	
 103	 1.55126307e+01	 2.06835076e+00	-4.40000000e-01	1.000	 35	 0	
 104	 1.65468061e+01	 2.06835076e+00	-4.40000000e-01	1.000	 35	 0	
 105	 1.75809815e+01	 2.06835076e+00	-4.40000000e-01	1.000	 35	 0	
 106	 1.86151568e+01	 2.06835076e+00	-4.40000000e-01	1.000	 35	 0	
 107	 1.96493322e+01	 2.06835076e+00	-4.40000000e-01	1.000	 35	 0	
 108	 2.06835076e+01	 2.06835076e+00	-4.40000000e-01	1.000	 35	 0	
 109	 2.17176830e+01	 2.06835076e+00	-4.40000000e-01	1.000	 35	 0	
 110	 2.27518584e+01	 2.06835076e+00	-4.40000000e-01	1.000	 35	 0	
 111	 2.37860337e+01	 2.06835076e+00	-4.40000000e-01	1.000	 35	 0	
 112	 2.48202091e+01	 2.06835076e+00	-4.40000000e-01	1.000	 35	 0	
 113	 2.58543845e+01	 2.06835076e+00	-4.40000000e-01	1.000	 35	 0	
 114	 2.68885599e+01	 2.06835076e+00	-4.40000000e-01	1.000	 35	 0	
 115	 2.79227353e+01	 2.06835076e+00	-4.40000000e-01	1.000	 35	 0	
 116	 2.89569106e+01	 2.06835076e+00	-4.40000000e-01	1.000	 35	 0	
 117	 2.99910860e+01	 2.06835076e+00	-4.40000000e-01	1.000	 35	 0	
 118	 3.10252614e+01	 2.06835076e+00	-4.40000000e-01	1.000	 35	 0	
 119	 3.20594368e+01	 2.06835076e+00	-4.40000000e-01	1.000	 35	 0	
 120	 3.30936122e+01	 2.06835076e+00	-4.40000000e-01	1.000	 35	 0	
 121	 3.41277875e+01	 2.06835076e+00	-4.40000000e-01	1.000	 35	 0	
 122	 3.51619629e+01	 2.06835076e+00	-4.40000000e-01	1.000	 35	 0	
 123	 3.61961383e+01	 2.06835076e+00	-4.40000000e-01	1.000	 35	 0	
 124	 3.72303137e+01	 2.06835076e+00	-4.40000000e-01	1.000	 35	 0	
 125	 3.82644891e+01	 2.06835076e+00	-4.40000000e-01	1.000	 35	 0	
 126	 3.92986644e+01	 2.06835076e+00	-4.40000000e-01	1.000	 35	 0	
 127	 4.03328398e+01	 2.06835076e+00	-4.40000000e-01	1.000	 35	 0	
 128	 4.13670152e+01	 2.06835076e+00	-4.40000000e-01	1.000	 35	 0	
 129	 4.24011906e+01	 2.06835076e+00	-4.40000000e-01	1.000	 35	 0	
 130	 4.34353660e+01	 2.06835076e+00	-4.40000000e-01	1.000	 35	 0	
 131	 4.44695413e+01	 2.06835076e+00	-4.40000000e-01	1.000	 35	 0	
 132	 0.00000000e+00	 3.10252614e+00	-4.40000000e-01	1.000	 35	 0	
 133	 1.03417538e+00	 3.10252614e+00	-4.40000000e-01	1.000	 35	 0	
 134	 2.06835076e+00	 3.10252614e+00	-4.40000000e-01	1.000	 35	 0	
 135	 3.10252614e+00	 3.10252614e+00	-4.40000000e-01	1.000	 35	 0	
 136	 4.13670152e+00	 3.10252614e+00	-4.40000000e-01	1.000	 35	 0	
 137	 5.17087690e+00	 3.10252614e+00	-4.40000000e-01	1.000	 35	 0	
 138	 6.20505228e+00	 3.10252614e+00	-4.40000000e-01	1.000	 35	 0	
 139	 7.23922766e+00	 3.10252614e+00	-4.40000000e-01	1.000	 35	 0	
 140	 8.27340304e+00	 3.10252614e+00	-4.40000000e-01	1.000	 35	 0	
 141	 9.30757842e+00	 3.10252614e+00	-4.40000000e-01	1.000	 35	 0	
 142	 1.03417538e+01	 3.10252614e+00	-4.40000000e-01	1.000	 35	 0	
 143	 1.13759292e+01	 3.10252614e+00	-4.40000000e-01	1.000	 35	 0	
 144	 1.24101046e+01	 3.10252614e+00	-4.40000000e-01	1.000	 35	 0	
 145	 1.34442799e+01	 3.10252614e+00	-4.40000000e-01	1.000	 35	 0	
 146	 1.44784553e+01	 3.10252614e+00	-4.40000000e-01	1.000	 35	 0	
 147	 1.55126307e+01	 3.10252614e+00	-4.40000000e-01	1.000	 35	 0	
 148	 1.65468061e+01	 3.10252614e+00	-4.40000000e-01	1.000	 35	 0	
 149	 1.75809815e+01	 3.10252614e+00	-4.40000000e-01	1.000	 35	 0	
 150	 1.86151568e+01	 3.10252614e+00	-4.40000000e-01	1.000	 35	 0	
 151	 1.96493322e+01	 3.10252614e+00	-4.40000000e-01	1.000	 35	 0	
 152	 2.06835076e+01	 3.10252614e+00	-4.40000000e-01	1.000	 35	 0	
 153	 2.17176830e+01	 3.10252614e+00	-4.40000000e-01	1.000	 35	 0	
 154	 2.27518584e+01	 3.10252614e+00	-4.40000000e-01	1.000	 35	 0	
 155	 2.37860337e+01	 3.10252614e+00	-4.40000000e-01	1.000	 35	 0	
 156	 2.48202091e+01	 3.10252614e+00	-4.40000000e-01	1.000	 35	 0	
 157	 2.58543845e+01	 3.10252614e+00	-4.40000000e-01	1.000	 35	 0	
 158	 2.68885599e+01	 3.10252614e+00	-4.40000000e-01	1.000	 35	 0	
 159	 2.79227353e+01	 3.10252614e+00	-4.40000000e-01	1.000	 35	 0	
 160	 2.89569106e+01	 3.10252614e+00	-4.40000000e-01	1.000	 35	 0	
 161	 2.99910860e+01	 3.10252614e+00	-4.40000000e-01	1.000	 35	 0	
 162	 3.10252614e+01	 3.10252614e+00	-4.40000000e-01	1.000	 35	 0	
 163	 3.20594368e+01	 3.10252614e+00	-4.40000000e-01	1.000	 35	 0	
 164	 3.30936122e+01	 3.10252614e+00	-4.40000000e-01	1.000	 35	 0	
 165	 3.41277875e+01	 3.10252614e+00	-4.40000000e-01	1.000	 35	 0	
 166	 3.51619629e+01	 3.10252614e+00	-4.40000000e-01	1.000	 35	 0	
 167	 3.61961383e+01	 3.10252614e+00	-4.40000000e-01	1.000	 35	 0	
 168	 3.72303137e+01	 3.10252614e+00	-4.40000000e-01	1.000	 35	 0	
 169	 3.82644891e+01	 3.10252614e+00	-4.40000000e-01	1.000	 35	 0	
 170	 3.92986644e+01	 3.10252614e+00	-4.40000000e-01	1.000	 35	 0	
 171	 4.03328398e+01	 3.10252614e+00	-4.40000000e-01	1.000	 35	 0	
 172	 4.13670152e+01	 3.10252614e+00	-4.40000000e-01	1.000	 35	 0	
 173	 4.24011906e+01	 3.10252614e+00	-4.40000000e-01	1.000	 35	 0	
 174	 4.34353660e+01	 3.10252614e+00	-4.40000000e-01	1.000	 35	 0	
 175	 4.44695413e+01	 3.10252614e+00	-4.40000000e-01	1.000	 35	 0	
 176	 0.00000000e+00	 4.13670152e+00	-4.40000000e-01	1.000	 35	 0	
 177	 1.03417538e+00	 4.13670152e+00	-4.40000000e-01	1.000	 35	 0	
 178	 2.06835076e+00	 4.13670152e+00	-4.40000000e-01	1.000	 35	 0	
 179	 3.10252614e+00	 4.13670152e+00	-4.40000000e-01	1.000	 35	 0	
 180	 4.13670152e+00	 4.13670152e+00	-4.40000000e-01	1.000	 35	 0	
 181	 5.17087690e+00	 4.13670152e+00	-4.40000000e-01	1.000	 35	 0	
 182	 6.20505228e+00	 4.13670152e+00	-4.40000000e-01	1.000	 35	 0	
 183	 7.23922766e+00	 4.13670152e+00	-4.40000000e-01	1.000	 35	 0	
 184	 8.27340304e+00	 4.13670152e+00	-4.40000000e-01	1.000	 35	 0	
 185	 9.30757842e+00	 4.13670152e+00	-4.40000000e-01	1.000	 35	 0	
 186	 1.03417538e+01	 4.13670152e+00	-4.40000000e-01	1.000	 35	 0	
 187	 1.13759292e+01	 4.13670152e+00	-4.40000000e-01	1.000	 35	 0	
 188	 1.24101046e+01	 4.13670152e+00	-4.40000000e-01	1.000	 35	 0	
 189	 1.34442799e+01	 4.13670152e+00	-4.40000000e-01	1.000	 35	 0	
 190	 1.44784553e+01	 4.13670152e+00	-4.40000000e-01	1.000	 35	 0	
 191	 1.55126307e+01	 4.13670152e+00	-4.40000000e-01	1.000	 35	 0	
 192	 1.65468061e+01	 4.13670152e+00	-4.40000000e-01	1.000	 35	 0	
 193	 1.75809815e+01	 4.13670152e+00	-4.40000000e-01	1.000	 35	 0	
 194	 1.86151568e+01	 4.13670152e+00	-4.40000000e-01	1.000	 35	 0	
 195	 1.96493322e+01	 4.13670152e+00	-4.40000000e-01	1.000	 35	 0	
 196	 2.06835076e+01	 4.13670152e+00	-4.40000000e-01	1.000	 35	 0	
 197	 2.17176830e+01	 4.13670152e+00	-4.40000000e-01	1.000	 35	 0	
 198	 2.27518584e+01	 4.13670152e+00	-4.40000000e-01	1.000	 35	 0	
 199	 2.37860337e+01	 4.13670152e+00	-4.40000000e-01	1.000	 35	 0	
 200	 2.48202091e+01	 4.13670152e+00	-4.40000000e-01	1.000	 35	 0	
 201	 2.58543845e+01	 4.13670152e+00	-4.40000000e-01	1.000	 35	 0	
 202	 2.68885599e+01	 4.13670152e+00	-4.40000000e-01	1.000	 35	 0	
 203	 2.79227353e+01	 4.13670152e+00	-4.40000000e-01	1.000	 35	 0	
 204	 2.89569106e+01	 4.13670152e+00	-4.40000000e-01	1.000	 35	 0	
 205	 2.99910860e+01	 4.13670152e+00	-4.40000000e-01	1.000	 35	 0	
 206	 3.10252614e+01	 4.13670152e+00	-4.40000000e-01	1.000	 35	 0	
 207	 3.20594368e+01	 4.13670152e+00	-4.40000000e-01	1.000	 35	 0	
 208	 3.30936122e+01	 4.13670152e+00	-4.40000000e-01	1.000	 35	 0	
 209	 3.41277875e+01	 4.13670152e+00	-4.40000000e-01	1.000	 35	 0	
 210	 3.51619629e+01	 4.13670152e+00	-4.40000000e-01	1.000	 35	 0	
 211	 3.61961383e+01	 4.13670152e+00	-4.40000000e-01	1.000	 35	 0	
 212	 3.72303137e+01	 4.13670152e+00	-4.40000000e-01	1.000	 35	 0	
 213	 3.82644891e+01	 4.13670152e+00	-4.40000000e-01	1.000	 35	 0	
 214	 3.92986644e+01	 4.13670152e+00	-4.40000000e-01	1.000	 35	 0	
 215	 4.03328398e+01	 4.13670152e+00	-4.40000000e-01	1.000	 35	 0	
 216	 4.13670152e+01	 4.13670152e+00	-4.40000000e-01	1.000	 35	 0	
 217	 4.24011906e+01	 4.13670152e+00	-4.40000000e-01	1.000	 35	 0	
 218	 4.34353660e+01	 4.13670152e+00	-4.40000000e-01	1.000	 35	 0	
 219	 4.44695413e+01	 4.13670152e+00	-4.40000000e-01	1.000	 35	 0	
 220	 0.00000000e+00	 5.17087690e+00	-4.40000000e-01	1.000	 35	 0	
 221	 1.03417538e+00	 5.17087690e+00	-4.40000000e-01	1.000	 35	 0	
 222	 2.06835076e+00	 5.17087690e+00	-4.40000000e-01	1.000	 35	 0	
 223	 3.10252614e+00	 5.17087690e+00	-4.40000000e-01	1.000	 35	 0	
 224	 4.13670152e+00	 5.17087690e+00	-4.40000000e-01	1.000	 35	 0	
 225	 5.17087690e+00	 5.17087690e+00	-4.40000000e-01	1.000	 35	 0	
 226	 6.20505228e+00	 5.17087690e+00	-4.40000000e-01	1.000	 35	 0	
 227	 7.23922766e+00	 5.17087690e+00	-4.40000000e-01	1.000	 35	 0	
 228	 8.27340304e+00	 5.17087690e+00	-4.40000000e-01	1.000	 35	 0	
 229	 9.30757842e+00	 5.17087690e+00	-4.40000000e-01	1.000	 35	 0	
 230	 1.03417538e+01	 5.17087690e+00	-4.40000000e-01	1.000	 35	 0	
 231	 1.13759292e+01	 5.17087690e+00	-4.40000000e-01	1.000	 35	 0	
 232	 1.24101046e+01	 5.17087690e+00	-4.40000000e-01	1.000	 35	 0	
 233	 1.34442799e+01	 5.17087690e+00	-4.40000000e-01	1.000	 35	 0	
 234	 1.44784553e+01	 5.17087690e+00	-4.40000000e-01	1.000	 35	 0	
 235	 1.55126307e+01	 5.17087690e+00	-4.40000000e-01	1.000	 35	 0	
 236	 1.65468061e+01	 5.17087690e+00	-4.40000000e-01	1.000	 35	 0	
 237	 1.75809815e+01	 5.17087690e+00	-4.40000000e-01	1.000	 35	 0	
 238	 1.86151568e+01	 5.17087690e+00	-4.40000000e-01	1.000	 35	 0	
 239	 1.96493322e+01	 5.17087690e+00	-4.40000000e-01	1.000	 35	 0	
 240	 2.06835076e+01	 5.17087690e+00	-4.40000000e-01	1.000	 35	 0	
 241	 2.17176830e+01	 5.17087690e+00	-4.40000000e-01	1.000	 35	 0	
 242	 2.27518584e+01	 5.17087690e+00	-4.40000000e-01	1.000	 35	 0	
 243	 2.37860337e+01	 5.17087690e+00	-4.40000000e-01	1.000	 35	 0	
 244	 2.48202091e+01	 5.17087690e+00	-4.40000000e-01	1.000	 35	 0	
 245	 2.58543845e+01	 5.17087690e+00	-4.40000000e-01	1.000	 35	 0	
 246	 2.68885599e+01	 5.17087690e+00	-4.40000000e-01	1.000	 35	 0	
 247	 2.79227353e+01	 5.17087690e+00	-4.40000000e-01	1.000	 35	 0	
 248	 2.89569106e+01	 5.17087690e+00	-4.40000000e-01	1.000	 35	 0	
 249	 2.99910860e+01	 5.17087690e+00	-4.40000000e-01	1.000	 35	 0	
 250	 3.10252614e+01	 5.17087690e+00	-4.40000000e-01	1.000	 35	 0	
 251	 3.20594368e+01	 5.17087690e+00	-4.40000000e-01	1.000	 35	 0	
 252	 3.30936122e+01	 5.17087690e+00	-4.40000000e-01	1.000	 35	 0	
 253	 3.41277875e+01	 5.17087690e+00	-4.40000000e-01	1.000	 35	 0	
 254	 3.51619629e+01	 5.17087690e+00	-4.40000000e-01	1.000	 35	 0	
 255	 3.61961383e+01	 5.17087690e+00	-4.40000000e-01	1.000	 35	 0	
 256	 3.72303137e+01	 5.17087690e+00	-4.40000000e-01	1.000	 35	 0	
 257	 3.82644891e+01	 5.17087690e+00	-4.40000000e-01	1.000	 35	 0	
 258	 3.92986644e+01	 5.17087690e+00	-4.40000000e-01	1.000	 35	 0	
 259	 4.03328398e+01	 5.17087690e+00	-4.40000000e-01	1.000	 35	 0	
 260	 4.13670152e+01	 5.17087690e+00	-4.40000000e-01	1.000	 35	 0	
 261	 4.24011906e+01	 5.17087690e+00	-4.40000000e-01	1.000	 35	 0	
 262	 4.34353660e+01	 5.17087690e+00	-4.40000000e-01	1.000	 35	 0	
 263	 4.44695413e+01	 5.17087690e+00	-4.40000000e-01	1.000	 35	 0	
 264	 0.00000000e+00	 6.20505228e+00	-4.40000000e-01	1.000	 35	 0	
 265	 1.03417538e+00	 6.20505228e+00	-4.40000000e-01	1.000	 35	 0	
 266	 2.06835076e+00	 6.20505228e+00	-4.40000000e-01	1.000	 35	 0	
 267	 3.10252614e+00	 6.20505228e+00	-4.40000000e-01	1.000	 35	 0	
 268	 4.13670152e+00	 6.20505228e+00	-4.40000000e-01	1.000	 35	 0	
 269	 5.17087690e+00	 6.20505228e+00	-4.40000000e-01	1.000	 35	 0	
 270	 6.20505228e+00	 6.20505228e+00	-4.40000000e-01	1.000	 35	 0	
 271	 7.23922766e+00	 6.20505228e+00	-4.40000000e-01	1.000	 35	 0	
 272	 8.27340304e+00	 6.20505228e+00	-4.40000000e-01	1.000	 35	 0	
 273	 9.30757842e+00	 6.20505228e+00	-4.40000000e-01	1.000	 35	 0	
 274	 1.03417538e+01	 6.20505228e+00	-4.40000000e-01	1.000	 35	 0	
 275	 1.13759292e+01	 6.20505228e+00	-4.40000000e-01	1.000	 35	 0	
 276	 1.24101046e+01	 6.20505228e+00	-4.40000000e-01	1.000	 35	 0	
 277	 1.34442799e+01	 6.20505228e+00	-4.40000000e-01	1.000	 35	 0	
 278	 1.44784553e+01	 6.20505228e+00	-4.40000000e-01	1.000	 35	 0	
 279	 1.55126307e+01	 6.20505228e+00	-4.40000000e-01	1.000	 35	 0	
 280	 1.65468061e+01	 6.20505228e+00	-4.40000000e-01	1.000	 35	 0	
 281	 1.75809815e+01	 6.20505228e+00	-4.40000000e-01	1.000	 35	 0	
 282	 1.86151568e+01	 6.20505228e+00	-4.40000000e-01	1.000	 35	 0	
 283	 1.96493322e+01	 6.20505228e+00	-4.40000000e-01	1.000	 35	 0	
 284	 2.06835076e+01	 6.20505228e+00	-4.40000000e-01	1.000	 35	 0	
 285	 2.17176830e+01	 6.20505228e+00	-4.40000000e-01	1.000	 35	 0	
 286	 2.27518584e+01	 6.20505228e+00	-4.40000000e-01	1.000	 35	 0	
 287	 2.37860337e+01	 6.20505228e+00	-4.40000000e-01	1.000	 35	 0	
 288	 2.48202091e+01	 6.20505228e+00	-4.40000000e-01	1.000	 35	 0	
 289	 2.58543845e+01	 6.20505228e+00	-4.40000000e-01	1.000	 35	 0	
 290	 2.68885599e+01	 6.20505228e+00	-4.40000000e-01	1.000	 35	 0	
 291	 2.79227353e+01	 6.20505228e+00	-4.40000000e-01	1.000	 35	 0	
 292	 2.89569106e+01	 6.20505228e+00	-4.40000000e-01	1.000	 35	 0	
 293	 2.99910860e+01	 6.20505228e+00	-4.40000000e-01	1.000	 35	 0	
 294	 3.10252614e+01	 6.20505228e+00	-4.40000000e-01	1.000	 35	 0	
 295	 3.20594368e+01	 6.20505228e+00	-4.40000000e-01	1.000	 35	 0	
 296	 3.30936122e+01	 6.20505228e+00	-4.40000000e-01	1.000	 35	 0	
 297	 3.41277875e+01	 6.20505228e+00	-4.40000000e-01	1.000	 35	 0	
 298	 3.51619629e+01	 6.20505228e+00	-4.40000000e-01	1.000	 35	 0	
 299	 3.61961383e+01	 6.20505228e+00	-4.40000000e-01	1.000	 35	 0	
 300	 3.72303137e+01	 6.20505228e+00	-4.40000000e-01	1.000	 35	 0	
 301	 3.82644891e+01	 6.20505228e+00	-4.40000000e-01	1.000	 35	 0	
 302	 3.92986644e+01	 6.20505228e+00	-4.40000000e-01	1.000	 35	 0	
 303	 4.03328398e+01	 6.20505228e+00	-4.40000000e-01	1.000	 35	 0	
 304	 4.13670152e+01	 6.20505228e+00	-4.40000000e-01	1.000	 35	 0	
 305	 4.24011906e+01	 6.20505228e+00	-4.40000000e-01	1.000	 35	 0	
 306	 4.34353660e+01	 6.20505228e+00	-4.40000000e-01	1.000	 35	 0	
 307	 4.44695413e+01	 6.20505228e+00	-4.40000000e-01	1.000	 35	 0	
 308	 0.00000000e+00	 7.23922766e+00	-4.40000000e-01	1.000	 35	 0	
 309	 1.03417538e+00	 7.23922766e+00	-4.40000000e-01	1.000	 35	 0	
 310	 2.06835076e+00	 7.23922766e+00	-4.40000000e-01	1.000	 35	 0	
 311	 3.10252614e+00	 7.23922766e+00	-4.40000000e-01	1.000	 35	 0	
 312	 4.13670152e+00	 7.23922766e+00	-4.40000000e-01	1.000	 35	 0	
 313	 5.17087690e+00	 7.23922766e+00	-4.40000000e-01	1.000	 35	 0	
 314	 6.20505228e+00	 7.23922766e+00	-4.40000000e-01	1.000	 35	 0	
 315	 7.23922766e+00	 7.23922766e+00	-4.40000000e-01	1.000	 35	 0	
 316	 8.27340304e+00	 7.23922766e+00	-4.40000000e-01	1.000	 35	 0	
 317	 9.30757842e+00	 7.23922766e+00	-4.40000000e-01	1.000	 35	 0	
 318	 1.03417538e+01	 7.23922766e+00	-4.40000000e-01	1.000	 35	 0	
 319	 1.13759292e+01	 7.23922766e+00	-4.40000000e-01	1.000	 35	 0	
 320	 1.24101046e+01	 7.23922766e+00	-4.40000000e-01	1.000	 35	 0	
 321	 1.34442799e+01	 7.23922766e+00	-4.40000000e-01	1.000	 35	 0	
 322	 1.44784553e+01	 7.23922766e+00	-4.40000000e-01	1.000	 35	 0	
 323	 1.55126307e+01	 7.23922766e+00	-4.40000000e-01	1.000	 35	 0	
 324	 1.65468061e+01	 7.23922766e+00	-4.40000000e-01	1.000	 35	 0	
 325	 1.75809815e+01	 7.23922766e+00	-4.40000000e-01	1.000	 35	 0	
 326	 1.86151568e+01	 7.23922766e+00	-4.40000000e-01	1.000	 35	 0	
 327	 1.96493322e+01	 7.23922766e+00	-4.40000000e-01	1.000	 35	 0	
 328	 2.06835076e+01	 7.23922766e+00	-4.40000000e-01	1.000	 35	 0	
 329	 2.17176830e+01	 7.23922766e+00	-4.40000000e-01	1.000	 35	 0	
 330	 2.27518584e+01	 7.23922766e+00	-4.40000000e-01	1.000	 35	 0	
 331	 2.37860337e+01	 7.23922766e+00	-4.40000000e-01	1.000	 35	 0	
 332	 2.48202091e+01	 7.23922766e+00	-4.40000000e-01	1.000	 35	 0	
 333	 2.58543845e+01	 7.23922766e+00	-4.40000000e-01	1.000	 35	 0	
 334	 2.68885599e+01	 7.23922766e+00	-4.40000000e-01	1.000	 35	 0	
 335	 2.79227353e+01	 7.23922766e+00	-4.40000000e-01	1.000	 35	 0	
 336	 2.89569106e+01	 7.23922766e+00	-4.40000000e-01	1.000	 35	 0	
 337	 2.99910860e+01	 7.23922766e+00	-4.40000000e-01	1.000	 35	 0	
 338	 3.10252614e+01	 7.23922766e+00	-4.40000000e-01	1.000	 35	 0	
 339	 3.20594368e+01	 7.23922766e+00	-4.40000000e-01	1.000	 35	 0	
 340	 3.30936122e+01	 7.23922766e+00	-4.40000000e-01	1.000	 35	 0	
 341	 3.41277875e+01	 7.23922766e+00	-4.40000000e-01	1.000	 35	 0	
 342	 3.51619629e+01	 7.23922766e+00	-4.40000000e-01	1.000	 35	 0	
 343	 3.61961383e+01	 7.23922766e+00	-4.40000000e-01	1.000	 35	 0	
 344	 3.72303137e+01	 7.23922766e+00	-4.40000000e-01	1.000	 35	 0	
 345	 3.82644891e+01	 7.23922766e+00	-4.40000000e-01	1.000	 35	 0	
 346	 3.92986644e+01	 7.23922766e+00	-4.40000000e-01	1.000	 35	 0	
 347	 4.03328398e+01	 7.23922766e+00	-4.40000000e-01	1.000	 35	 0	
 348	 4.13670152e+01	 7.23922766e+00	-4.40000000e-01	1.000	 35	 0	
 349	 4.24011906e+01	 7.23922766e+00	-4.40000000e-01	1.000	 35	 0	
 350	 4.34353660e+01	 7.23922766e+00	-4.40000000e-01	1.000	 35	 0	
 351	 4.44695413e+01	 7.23922766e+00	-4.40000000e-01	1.000	 35	 0	
 352	 0.00000000e+00	 8.27340304e+00	-4.40000000e-01	1.000	 35	 0	
 353	 1.03417538e+00	 8.27340304e+00	-4.40000000e-01	1.000	 35	 0	
 354	 2.06835076e+00	 8.27340304e+00	-4.40000000e-01	1.000	 35	 0	
 355	 3.10252614e+00	 8.27340304e+00	-4.40000000e-01	1.000	 35	 0	
 356	 4.13670152e+00	 8.27340304e+00	-4.40000000e-01	1.000	 35	 0	
 357	 5.17087690e+00	 8.27340304e+00	-4.40000000e-01	1.000	 35	 0	
 358	 6.20505228e+00	 8.27340304e+00	-4.40000000e-01	1.000	 35	 0	
 359	 7.23922766e+00	 8.27340304e+00	-4.40000000e-01	1.000	 35	 0	
 360	 8.27340304e+00	 8.27340304e+00	-4.40000000e-01	1.000	 35	 0	
 361	 9.30757842e+00	 8.27340304e+00	-4.40000000e-01	1.000	 35	 0	
 362	 1.03417538e+01	 8.27340304e+00	-4.40000000e-01	1.000	 35	 0	
 363	 1.13759292e+01	 8.27340304e+00	-4.40000000e-01	1.000	 35	 0	
 364	 1.24101046e+01	 8.27340304e+00	-4.40000000e-01	1.000	 35	 0	
 365	 1.34442799e+01	 8.27340304e+00	-4.40000000e-01	1.000	 35	 0	
 366	 1.44784553e+01	 8.27340304e+00	-4.40000000e-01	1.000	 35	 0	
 367	 1.55126307e+01	 8.27340304e+00	-4.40000000e-01	1.000	 35	 0	
 368	 1.65468061e+01	 8.27340304e+00	-4.40000000e-01	1.000	 35	 0	
 369	 1.75809815e+01	 8.27340304e+00	-4.40000000e-01	1.000	 35	 0	
 370	 1.86151568e+01	 8.27340304e+00	-4.40000000e-01	1.000	 35	 0	
 371	 1.96493322e+01	 8.27340304e+00	-4.40000000e-01	1.000	 35	 0	
 372	 2.06835076e+01	 8.27340304e+00	-4.40000000e-01	1.000	 35	 0	
 373	 2.17176830e+01	 8.27340304e+00	-4.40000000e-01	1.000	 35	 0	
 374	 2.27518584e+01	 8.27340304e+00	-4.40000000e-01	1.000	 35	 0	
 375	 2.37860337e+01	 8.27340304e+00	-4.40000000e-01	1.000	 35	 0	
 376	 2.48202091e+01	 8.27340304e+00	-4.40000000e-01	1.000	 35	 0	
 377	 2.58543845e+01	 8.27340304e+00	-4.40000000e-01	1.000	 35	 0	
 378	 2.68885599e+01	 8.27340304e+00	-4.40000000e-01	1.000	 35	 0	
 379	 2.79227353e+01	 8.27340304e+00	-4.40000000e-01	1.000	 35	 0	
 380	 2.89569106e+01	 8.27340304e+00	-4.40000000e-01	1.000	 35	 0	
 381	 2.99910860e+01	 8.27340304e+00	-4.40000000e-01	1.000	 35	 0	
 382	 3.10252614e+01	 8.27340304e+00	-4.40000000e-01	1.000	 35	 0	
 383	 3.20594368e+01	 8.27340304e+00	-4.40000000e-01	1.000	 35	 0	
 384	 3.30936122e+01	 8.27340304e+00	-4.40000000e-01	1.000	 35	 0	
 385	 3.41277875e+01	 8.27340304e+00	-4.40000000e-01	1.000	 35	 0	
 386	 3.51619629e+01	 8.27340304e+00	-4.40000000e-01	1.000	 35	 0	
 387	 3.61961383e+01	 8.27340304e+00	-4.40000000e-01	1.000	 35	 0	
 388	 3.72303137e+01	 8.27340304e+00	-4.40000000e-01	1.000	 35	 0	
 389	 3.82644891e+01	 8.27340304e+00	-4.40000000e-01	1.000	 35	 0	
 390	 3.92986644e+01	 8.27340304e+00	-4.40000000e-01	1.000	 35	 0	
 391	 4.03328398e+01	 8.27340304e+00	-4.40000000e-01	1.000	 35	 0	
 392	 4.13670152e+01	 8.27340304e+00	-4.40000000e-01	1.000	 35	 0	
 393	 4.24011906e+01	 8.27340304e+00	-4.40000000e-01	1.000	 35	 0	
 394	 4.34353660e+01	 8.27340304e+00	-4.40000000e-01	1.000	 35	 0	
 395	 4.44695413e+01	 8.27340304e+00	-4.40000000e-01	1.000	 35	 0	
 396	 0.00000000e+00	 9.30757842e+00	-4.40000000e-01	1.000	 35	 0	
 397	 1.03417538e+00	 9.30757842e+00	-4.40000000e-01	1.000	 35	 0	
 398	 2.06835076e+00	 9.30757842e+00	-4.40000000e-01	1.000	 35	 0	
 399	 3.10252614e+00	 9.30757842e+00	-4.40000000e-01	1.000	 35	 0	
 400	 4.13670152e+00	 9.30757842e+00	-4.40000000e-01	1.000	 35	 0	
 401	 5.17087690e+00	 9.30757842e+00	-4.40000000e-01	1.000	 35	 0	
 402	 6.20505228e+00	 9.30757842e+00	-4.40000000e-01	1.000	 35	 0	
 403	 7.23922766e+00	 9.30757842e+00	-4.40000000e-01	1.000	 35	 0	
 404	 8.27340304e+00	 9.30757842e+00	-4.40000000e-01	1.000	 35	 0	
 405	 9.30757842e+00	 9.30757842e+00	-4.40000000e-01	1.000	 35	 0	
 406	 1.03417538e+01	 9.30757842e+00	-4.40000000e-01	1.000	 35	 0	
 407	 1.13759292e+01	 9.30757842e+00	-4.40000000e-01	1.000	 35	 0	
 408	 1.24101046e+01	 9.30757842e+00	-4.40000000e-01	1.000	 35	 0	
 409	 1.34442799e+01	 9.30757842e+00	-4.40000000e-01	1.000	 35	 0	
 410	 1.44784553e+01	 9.30757842e+00	-4.40000000e-01	1.000	 35	 0	
 411	 1.55126307e+01	 9.30757842e+00	-4.40000000e-01	1.000	 35	 0	
 412	 1.65468061e+01	 9.30757842e+00	-4.40000000e-01	1.000	 35	 0	
 413	 1.75809815e+01	 9.30757842e+00	-4.40000000e-01	1.000	 35	 0	
 414	 1.86151568e+01	 9.30757842e+00	-4.40000000e-01	1.000	 35	 0	
 415	 1.96493322e+01	 9.30757842e+00	-4.40000000e-01	1.000	 35	 0	
 416	 2.06835076e+01	 9.30757842e+00	-4.40000000e-01	1.000	 35	 0	
 417	 2.17176830e+01	 9.30757842e+00	-4.40000000e-01	1.000	 35	 0	
 418	 2.27518584e+01	 9.30757842e+00	-4.40000000e-01	1.000	 35	 0	
 419	 2.37860337e+01	 9.30757842e+00	-4.40000000e-01	1.000	 35	 0	
 420	 2.48202091e+01	 9.30757842e+00	-4.40000000e-01	1.000	 35	 0	
 421	 2.58543845e+01	 9.30757842e+00	-4.40000000e-01	1.000	 35	 0	
 422	 2.68885599e+01	 9.30757842e+00	-4.40000000e-01	1.000	 35	 0	
 423	 2.79227353e+01	 9.30757842e+00	-4.40000000e-01	1.000	 35	 0	
 424	 2.89569106e+01	 9.30757842e+00	-4.40000000e-01	1.000	 35	 0	
 425	 2.99910860e+01	 9.30757842e+00	-4.40000000e-01	1.000	 35	 0	
 426	 3.10252614e+01	 9.30757842e+00	-4.40000000e-01	1.000	 35	 0	
 427	 3.20594368e+01	 9.30757842e+00	-4.40000000e-01	1.000	 35	 0	
 428	 3.30936122e+01	 9.30757842e+00	-4.40000000e-01	1.000	 35	 0	
 429	 3.41277875e+01	 9.30757842e+00	-4.40000000e-01	1.000	 35	 0	
 430	 3.51619629e+01	 9.30757842e+00	-4.40000000e-01	1.000	 35	 0	
 431	 3.61961383e+01	 9.30757842e+00	-4.40000000e-01	1.000	 35	 0	
 432	 3.72303137e+01	 9.30757842e+00	-4.40000000e-01	1.000	 35	 0	
 433	 3.82644891e+01	 9.30757842e+00	-4.40000000e-01	1.000	 35	 0	
 434	 3.92986644e+01	 9.30757842e+00	-4.40000000e-01	1.000	 35	 0	
 435	 4.03328398e+01	 9.30757842e+00	-4.40000000e-01	1.000	 35	 0	
 436	 4.13670152e+01	 9.30757842e+00	-4.40000000e-01	1.000	 35	 0	
 437	 4.24011906e+01	 9.30757842e+00	-4.40000000e-01	1.000	 35	 0	
 438	 4.34353660e+01	 9.30757842e+00	-4.40000000e-01	1.000	 35	 0	
 439	 4.44695413e+01	 9.30757842e+00	-4.40000000e-01	1.000	 35	 0	
 440	 0.00000000e+00	 1.03417538e+01	-4.40000000e-01	1.000	 35	 0	
 441	 1.03417538e+00	 1.03417538e+01	-4.40000000e-01	1.000	 35	 0	
 442	 2.06835076e+00	 1.03417538e+01	-4.40000000e-01	1.000	 35	 0	
 443	 3.10252614e+00	 1.03417538e+01	-4.40000000e-01	1.000	 35	 0	