ITEM: TIMESTEP
0
ITEM: BOX BOUNDS xx yy zz
-16.35175	 16.35175	
-16.35175	 16.35175	
-1.10000	 1.10000	
ITEM: NUMBER OF ATOMS
1922
ITEM: ATOMS index x y z diameter charge species
   0	 0.00000000e+00	 0.00000000e+00	-4.40000000e-01	1.000	 35	 0	
   1	 1.05495152e+00	 0.00000000e+00	-4.40000000e-01	1.000	 35	 0	
   2	 2.10990303e+00	 0.00000000e+00	-4.40000000e-01	1.000	 35	 0	
   3	 3.16485455e+00	 0.00000000e+00	-4.40000000e-01	1.000	 35	 0	
   4	 4.21980607e+00	 0.00000000e+00	-4.40000000e-01	1.000	 35	 0	
   5	 5.27475758e+00	 0.00000000e+00	-4.40000000e-01	1.000	 35	 0	
   6	 6.32970910e+00	 0.00000000e+00	-4.40000000e-01	1.000	 35	 0	
   7	 7.38466061e+00	 0.00000000e+00	-4.40000000e-01	1.000	 35	 0	
   8	 8.43961213e+00	 0.00000000e+00	-4.40000000e-01	1.000	 35	 0	
   9	 9.49456365e+00	 0.00000000e+00	-4.40000000e-01	1.000	 35	 0	
  10	 1.05495152e+01	 0.00000000e+00	-4.40000000e-01	1.000	 35	 0	
  11	 1.16044667e+01	 0.00000000e+00	-4.40000000e-01	1.000	 35	 0	
  12	 1.26594182e+01	 0.00000000e+00	-4.40000000e-01	1.000	 35	 0	
  13	 1.37143697e+01	 0.00000000e+00	-4.40000000e-01	1.000	 35	 0	
  14	 1.47693212e+01	 0.00000000e+00	-4.40000000e-01	1.000	 35	 0	
  15	 1.58242727e+01	 0.00000000e+00	-4.40000000e-01	1.000	 35	 0	
  16	-1.58242727e+01	 0.00000000e+00	-4.40000000e-01	1.000	 35	 0	
  17	-1.47693212e+01	 0.00000000e+00	-4.40000000e-01	1.000	 35	 0	
  18	-1.37143697e+01	 0.00000000e+00	-4.40000000e-01	1.000	 35	 0	
  19	-1.26594182e+01	 0.00000000e+00	-4.40000000e-01	1.000	 35	 0	
  20	-1.16044667e+01	 0.00000000e+00	-4.40000000e-01	1.000	 35	 0	
  21	-1.05495152e+01	 0.00000000e+00	-4.40000000e-01	1.000	 35	 0	
  22	-9.49456365e+00	 0.00000000e+00	-4.40000000e-01	1.000	 35	 0	
  23	-8.43961213e+00	 0.00000000e+00	-4.40000000e-01	1.000	 35	 0	
  24	-7.38466061e+00	 0.00000000e+00	-4.40000000e-01	1.000	 35	 0	
  25	-6.32970910e+00	 0.00000000e+00	-4.40000000e-01	1.000	 35	 0	
  26	-5.27475758e+00	 0.00000000e+00	-4.40000000e-01	1.000	 35	 0	
  27	-4.21980607e+00	 0.00000000e+00	-4.40000000e-01	1.000	 35	 0	
  28	-3.16485455e+00	 0.00000000e+00	-4.40000000e-01	1.000	 35	 0	
  29	-2.10990303e+00	 0.00000000e+00	-4.40000000e-01	1.000	 35	 0	
  30	-1.05495152e+00	 0.00000000e+00	-4.40000000e-01	1.000	 35	 0	
  31	 0.00000000e+00	 1.05495152e+00	-4.40000000e-01	1.000	 35	 0	
  32	 1.05495152e+00	 1.05495152e+00	-4.40000000e-01	1.000	 35	 0	
  33	 2.10990303e+00	 1.05495152e+00	-4.40000000e-01	1.000	 35	 0	
  34	 3.16485455e+00	 1.05495152e+00	-4.40000000e-01	1.000	 35	 0	
  35	 4.21980607e+00	 1.05495152e+00	-4.40000000e-01	1.000	 35	 0	
  36	 5.27475758e+00	 1.05495152e+00	-4.40000000e-01	1.000	 35	 0	
  37	 6.32970910e+00	 1.05495152e+00	-4.40000000e-01	1.000	 35	 0	
  38	 7.38466061e+00	 1.05495152e+00	-4.40000000e-01	1.000	 35	 0	
  39	 8.43961213e+00	 1.05495152e+00	-4.40000000e-01	1.000	 35	 0	
  40	 9.49456365e+00	 1.05495152e+00	-4.40000000e-01	1.000	 35	 0	
  41	 1.05495152e+01	 1.05495152e+00	-4.40000000e-01	1.000	 35	 0	
  42	 1.16044667e+01	 1.05495152e+00	-4.40000000e-01	1.000	 35	 0	
  43	 1.26594182e+01	 1.05495152e+00	-4.40000000e-01	1.000	 35	 0	
  44	 1.37143697e+01	 1.05495152e+00	-4.40000000e-01	1.000	 35	 0	
  45	 1.47693212e+01	 1.05495152e+00	-4.40000000e-01	1.000	 35	 0	
  46	 1.58242727e+01	 1.05495152e+00	-4.40000000e-01	1.000	 35	 0	
  47	-1.58242727e+01	 1.05495152e+00	-4.40000000e-01	1.000	 35	 0	
  48	-1.47693212e+01	 1.05495152e+00	-4.40000000e-01	1.000	 35	 0	
  49	-1.37143697e+01	 1.05495152e+00	-4.40000000e-01	1.000	 35	 0	
  50	-1.26594182e+01	 1.05495152e+00	-4.40000000e-01	1.000	 35	 0	
  51	-1.16044667e+01	 1.05495152e+00	-4.40000000e-01	1.000	 35	 0	
  52	-1.05495152e+01	 1.05495152e+00	-4.40000000e-01	1.000	 35	 0	
  53	-9.49456365e+00	 1.05495152e+00	-4.40000000e-01	1.000	 35	 0	
  54	-8.43961213e+00	 1.05495152e+00	-4.40000000e-01	1.000	 35	 0	
  55	-7.38466061e+00	 1.05495152e+00	-4.40000000e-01	1.000	 35	 0	
  56	-6.32970910e+00	 1.05495152e+00	-4.40000000e-01	1.000	 35	 0	
  57	-5.27475758e+00	 1.05495152e+00	-4.40000000e-01	1.000	 35	 0	
  58	-4.21980607e+00	 1.05495152e+00	-4.40000000e-01	1.000	 35	 0	
  59	-3.16485455e+00	 1.05495152e+00	-4.40000000e-01	1.000	 35	 0	
  60	-2.10990303e+00	 1.05495152e+00	-4.40000000e-01	1.000	 35	 0	
  61	-1.05495152e+00	 1.05495152e+00	-4.40000000e-01	1.000	 35	 0	
  62	 0.00000000e+00	 2.10990303e+00	-4.40000000e-01	1.000	 35	 0	
  63	 1.05495152e+00	 2.10990303e+00	-4.40000000e-01	1.000	 35	 0	
  64	 2.10990303e+00	 2.10990303e+00	-4.40000000e-01	1.000	 35	 0	
  65	 3.16485455e+00	 2.10990303e+00	-4.40000000e-01	1.000	 35	 0	
  66	 4.21980607e+00	 2.10990303e+00	-4.40000000e-01	1.000	 35	 0	
  67	 5.27475758e+00	 2.10990303e+00	-4.40000000e-01	1.000	 35	 0	
  68	 6.32970910e+00	 2.10990303e+00	-4.40000000e-01	1.000	 35	 0	
  69	 7.38466061e+00	 2.10990303e+00	-4.40000000e-01	1.000	 35	 0	
  70	 8.43961213e+00	 2.10990303e+00	-4.40000000e-01	1.000	 35	 0	
  71	 9.49456365e+00	 2.10990303e+00	-4.40000000e-01	1.000	 35	 0	
  72	 1.05495152e+01	 2.10990303e+00	-4.40000000e-01	1.000	 35	 0	
  73	 1.16044667e+01	 2.10990303e+00	-4.40000000e-01	1.000	 35	 0	
  74	 1.26594182e+01	 2.10990303e+00	-4.40000000e-01	1.000	 35	 0	
  75	 1.37143697e+01	 2.10990303e+00	-4.40000000e-01	1.000	 35	 0	
  76	 1.47693212e+01	 2.10990303e+00	-4.40000000e-01	1.000	 35	 0	
  77	 1.58242727e+01	 2.10990303e+00	-4.40000000e-01	1.000	 35	 0	
  78	-1.58242727e+01	 2.10990303e+00	-4.40000000e-01	1.000	 35	 0	
  79	-1.47693212e+01	 2.10990303e+00	-4.40000000e-01	1.000	 35	 0	
  80	-1.37143697e+01	 2.10990303e+00	-4.40000000e-01	1.000	 35	 0	
  81	-1.26594182e+01	 2.10990303e+00	-4.40000000e-01	1.000	 35	 0	
  82	-1.16044667e+01	 2.10990303e+00	-4.40000000e-01	1.000	 35	 0	
  83	-1.05495152e+01	 2.10990303e+00	-4.40000000e-01	1.000	 35	 0	
  84	-9.49456365e+00	 2.10990303e+00	-4.40000000e-01	1.000	 35	 0	
  85	-8.43961213e+00	 2.10990303e+00	-4.40000000e-01	1.000	 35	 0	
  86	-7.38466061e+00	 2.10990303e+00	-4.40000000e-01	1.000	 35	 0	
  87	-6.32970910e+00	 2.10990303e+00	-4.40000000e-01	1.000	 35	 0	
  88	-5.27475758e+00	 2.10990303e+00	-4.40000000e-01	1.000	 35	 0	
  89	-4.21980607e+00	 2.10990303e+00	-4.40000000e-01	1.000	 35	 0	
  90	-3.16485455e+00	 2.10990303e+00	-4.40000000e-01	1.000	 35	 0	
  91	-2.10990303e+00	 2.10990303e+00	-4.40000000e-01	1.000	 35	 0	
  92	-1.05495152e+00	 2.10990303e+00	-4.40000000e-01	1.000	 35	 0	
  93	 0.00000000e+00	 3.16485455e+00	-4.40000000e-01	1.000	 35	 0	
  94	 1.05495152e+00	 3.16485455e+00	-4.40000000e-01	1.000	 35	 0	
  95	 2.10990303e+00	 3.16485455e+00	-4.40000000e-01	1.000	 35	 0	
  96	 3.16485455e+00	 3.16485455e+00	-4.40000000e-01	1.000	 35	 0	
  97	 4.21980607e+00	 3.16485455e+00	-4.40000000e-01	1.000	 35	 0	
  98	 5.27475758e+00	 3.16485455e+00	-4.40000000e-01	1.000	 35	 0	
  99	 6.32970910e+00	 3.16485455e+00	-4.40000000e-01	1.000	 35	 0	
 100	 7.38466061e+00	 3.16485455e+00	-4.40000000e-01	1.000	 35	 0	
 101	 8.43961213e+00	 3.16485455e+00	-4.40000000e-01	1.000	 35	 0	
 102	 9.49456365e+00	 3.16485455e+00	-4.40000000e-01	1.000	 35	 0	
 103	 1.05495152e+01	 3.16485455e+00	-4.40000000e-01	1.000	 35	 0	
 104	 1.16044667e+01	 3.16485455e+00	-4.40000000e-01	1.000	 35	 0	
 105	 1.26594182e+01	 3.16485455e+00	-4.40000000e-01	1.000	 35	 0	
 106	 1.37143697e+01	 3.16485455e+00	-4.40000000e-01	1.000	 35	 0	
 107	 1.47693212e+01	 3.16485455e+00	-4.40000000e-01	1.000	 35	 0	
 108	 1.58242727e+01	 3.16485455e+00	-4.40000000e-01	1.000	 35	 0	
 109	-1.58242727e+01	 3.16485455e+00	-4.40000000e-01	1.000	 35	 0	
 110	-1.47693212e+01	 3.16485455e+00	-4.40000000e-01	1.000	 35	 0	
 111	-1.37143697e+01	 3.16485455e+00	-4.40000000e-01	1.000	 35	 0	
 112	-1.26594182e+01	 3.16485455e+00	-4.40000000e-01	1.000	 35	 0	
 113	-1.16044667e+01	 3.16485455e+00	-4.40000000e-01	1.000	 35	 0	
 114	-1.05495152e+01	 3.16485455e+00	-4.40000000e-01	1.000	 35	 0	
 115	-9.49456365e+00	 3.16485455e+00	-4.40000000e-01	1.000	 35	 0	
 116	-8.43961213e+00	 3.16485455e+00	-4.40000000e-01	1.000	 35	 0	
 117	-7.38466061e+00	 3.16485455e+00	-4.40000000e-01	1.000	 35	 0	
 118	-6.32970910e+00	 3.16485455e+00	-4.40000000e-01	1.000	 35	 0	
 119	-5.27475758e+00	 3.16485455e+00	-4.40000000e-01	1.000	 35	 0	
 120	-4.21980607e+00	 3.16485455e+00	-4.40000000e-01	1.000	 35	 0	
 121	-3.16485455e+00	 3.16485455e+00	-4.40000000e-01	1.000	 35	 0	
 122	-2.10990303e+00	 3.16485455e+00	-4.40000000e-01	1.000	 35	 0	
 123	-1.05495152e+00	 3.16485455e+00	-4.40000000e-01	1.000	 35	 0	
 124	 0.00000000e+00	 4.21980607e+00	-4.40000000e-01	1.000	 35	 0	
 125	 1.05495152e+00	 4.21980607e+00	-4.40000000e-01	1.000	 35	 0	
 126	 2.10990303e+00	 4.21980607e+00	-4.40000000e-01	1.000	 35	 0	
 127	 3.16485455e+00	 4.21980607e+00	-4.40000000e-01	1.000	 35	 0	
 128	 4.21980607e+00	 4.21980607e+00	-4.40000000e-01	1.000	 35	 0	
 129	 5.27475758e+00	 4.21980607e+00	-4.40000000e-01	1.000	 35	 0	
 130	 6.32970910e+00	 4.21980607e+00	-4.40000000e-01	1.000	 35	 0	
 131	 7.38466061e+00	 4.21980607e+00	-4.40000000e-01	1.000	 35	 0	
 132	 8.43961213e+00	 4.21980607e+00	-4.40000000e-01	1.000	 35	 0	
 133	 9.49456365e+00	 4.21980607e+00	-4.40000000e-01	1.000	 35	 0	
 134	 1.05495152e+01	 4.21980607e+00	-4.40000000e-01	1.000	 35	 0	
 135	 1.16044667e+01	 4.21980607e+00	-4.40000000e-01	1.000	 35	 0	
 136	 1.26594182e+01	 4.21980607e+00	-4.40000000e-01	1.000	 35	 0	
 137	 1.37143697e+01	 4.21980607e+00	-4.40000000e-01	1.000	 35	 0	
 138	 1.47693212e+01	 4.21980607e+00	-4.40000000e-01	1.000	 35	 0	
 139	 1.58242727e+01	 4.21980607e+00	-4.40000000e-01	1.000	 35	 0	
 140	-1.58242727e+01	 4.21980607e+00	-4.40000000e-01	1.000	 35	 0	
 141	-1.47693212e+01	 4.21980607e+00	-4.40000000e-01	1.000	 35	 0	
 142	-1.37143697e+01	 4.21980607e+00	-4.40000000e-01	1.000	 35	 0	
 143	-1.26594182e+01	 4.21980607e+00	-4.40000000e-01	1.000	 35	 0	
 144	-1.16044667e+01	 4.21980607e+00	-4.40000000e-01	1.000	 35	 0	
 145	-1.05495152e+01	 4.21980607e+00	-4.40000000e-01	1.000	 35	 0	
 146	-9.49456365e+00	 4.21980607e+00	-4.40000000e-01	1.000	 35	 0	
 147	-8.43961213e+00	 4.21980607e+00	-4.40000000e-01	1.000	 35	 0	
 148	-7.38466061e+00	 4.21980607e+00	-4.40000000e-01	1.000	 35	 0	
 149	-6.32970910e+00	 4.21980607e+00	-4.40000000e-01	1.000	 35	 0	
 150	-5.27475758e+00	 4.21980607e+00	-4.40000000e-01	1.000	 35	 0	
 151	-4.21980607e+00	 4.21980607e+00	-4.40000000e-01	1.000	 35	 0	
 152	-3.16485455e+00	 4.21980607e+00	-4.40000000e-01	1.000	 35	 0	
 153	-2.10990303e+00	 4.21980607e+00	-4.40000000e-01	1.000	 35	 0	
 154	-1.05495152e+00	 4.21980607e+00	-4.40000000e-01	1.000	 35	 0	
 155	 0.00000000e+00	 5.27475758e+00	-4.40000000e-01	1.000	 35	 0	
 156	 1.05495152e+00	 5.27475758e+00	-4.40000000e-01	1.000	 35	 0	
 157	 2.10990303e+00	 5.27475758e+00	-4.40000000e-01	1.000	 35	 0	
 158	 3.16485455e+00	 5.27475758e+00	-4.40000000e-01	1.000	 35	 0	
 159	 4.21980607e+00	 5.27475758e+00	-4.40000000e-01	1.000	 35	 0	
 160	 5.27475758e+00	 5.27475758e+00	-4.40000000e-01	1.000	 35	 0	
 161	 6.32970910e+00	 5.27475758e+00	-4.40000000e-01	1.000	 35	 0	
 162	 7.38466061e+00	 5.27475758e+00	-4.40000000e-01	1.000	 35	 0	
 163	 8.43961213e+00	 5.27475758e+00	-4.40000000e-01	1.000	 35	 0	
 164	 9.49456365e+00	 5.27475758e+00	-4.40000000e-01	1.000	 35	 0	
 165	 1.05495152e+01	 5.27475758e+00	-4.40000000e-01	1.000	 35	 0	
 166	 1.16044667e+01	 5.27475758e+00	-4.40000000e-01	1.000	 35	 0	
 167	 1.26594182e+01	 5.27475758e+00	-4.40000000e-01	1.000	 35	 0	
 168	 1.37143697e+01	 5.27475758e+00	-4.40000000e-01	1.000	 35	 0	
 169	 1.47693212e+01	 5.27475758e+00	-4.40000000e-01	1.000	 35	 0	
 170	 1.58242727e+01	 5.27475758e+00	-4.40000000e-01	1.000	 35	 0	
 171	-1.58242727e+01	 5.27475758e+00	-4.40000000e-01	1.000	 35	 0	
 172	-1.47693212e+01	 5.27475758e+00	-4.40000000e-01	1.000	 35	 0	
 173	-1.37143697e+01	 5.27475758e+00	-4.40000000e-01	1.000	 35	 0	
 174	-1.26594182e+01	 5.27475758e+00	-4.40000000e-01	1.000	 35	 0	
 175	-1.16044667e+01	 5.27475758e+00	-4.40000000e-01	1.000	 35	 0	
 176	-1.05495152e+01	 5.27475758e+00	-4.40000000e-01	1.000	 35	 0	
 177	-9.49456365e+00	 5.27475758e+00	-4.40000000e-01	1.000	 35	 0	
 178	-8.43961213e+00	 5.27475758e+00	-4.40000000e-01	1.000	 35	 0	
 179	-7.38466061e+00	 5.27475758e+00	-4.40000000e-01	1.000	 35	 0	
 180	-6.32970910e+00	 5.27475758e+00	-4.40000000e-01	1.000	 35	 0	
 181	-5.27475758e+00	 5.27475758e+00	-4.40000000e-01	1.000	 35	 0	
 182	-4.21980607e+00	 5.27475758e+00	-4.40000000e-01	1.000	 35	 0	
 183	-3.16485455e+00	 5.27475758e+00	-4.40000000e-01	1.000	 35	 0	
 184	-2.10990303e+00	 5.27475758e+00	-4.40000000e-01	1.000	 35	 0	
 185	-1.05495152e+00	 5.27475758e+00	-4.40000000e-01	1.000	 35	 0	
 186	 0.00000000e+00	 6.32970910e+00	-4.40000000e-01	1.000	 35	 0	
 187	 1.05495152e+00	 6.32970910e+00	-4.40000000e-01	1.000	 35	 0	
 188	 2.10990303e+00	 6.32970910e+00	-4.40000000e-01	1.000	 35	 0	
 189	 3.16485455e+00	 6.32970910e+00	-4.40000000e-01	1.000	 35	 0	
 190	 4.21980607e+00	 6.32970910e+00	-4.40000000e-01	1.000	 35	 0	
 191	 5.27475758e+00	 6.32970910e+00	-4.40000000e-01	1.000	 35	 0	
 192	 6.32970910e+00	 6.32970910e+00	-4.40000000e-01	1.000	 35	 0	
 193	 7.38466061e+00	 6.32970910e+00	-4.40000000e-01	1.000	 35	 0	
 194	 8.43961213e+00	 6.32970910e+00	-4.40000000e-01	1.000	 35	 0	
 195	 9.49456365e+00	 6.32970910e+00	-4.40000000e-01	1.000	 35	 0	
 196	 1.05495152e+01	 6.32970910e+00	-4.40000000e-01	1.000	 35	 0	
 197	 1.16044667e+01	 6.32970910e+00	-4.40000000e-01	1.000	 35	 0	
 198	 1.26594182e+01	 6.32970910e+00	-4.40000000e-01	1.000	 35	 0	
 199	 1.37143697e+01	 6.32970910e+00	-4.40000000e-01	1.000	 35	 0	
 200	 1.47693212e+01	 6.32970910e+00	-4.40000000e-01	1.000	 35	 0	
 201	 1.58242727e+01	 6.32970910e+00	-4.40000000e-01	1.000	 35	 0	
 202	-1.58242727e+01	 6.32970910e+00	-4.40000000e-01	1.000	 35	 0	
 203	-1.47693212e+01	 6.32970910e+00	-4.40000000e-01	1.000	 35	 0	
 204	-1.37143697e+01	 6.32970910e+00	-4.40000000e-01	1.000	 35	 0	
 205	-1.26594182e+01	 6.32970910e+00	-4.40000000e-01	1.000	 35	 0	
 206	-1.16044667e+01	 6.32970910e+00	-4.40000000e-01	1.000	 35	 0	
 207	-1.05495152e+01	 6.32970910e+00	-4.40000000e-01	1.000	 35	 0	
 208	-9.49456365e+00	 6.32970910e+00	-4.40000000e-01	1.000	 35	 0	
 209	-8.43961213e+00	 6.32970910e+00	-4.40000000e-01	1.000	 35	 0	
 210	-7.38466061e+00	 6.32970910e+00	-4.40000000e-01	1.000	 35	 0	
 211	-6.32970910e+00	 6.32970910e+00	-4.40000000e-01	1.000	 35	 0	
 212	-5.27475758e+00	 6.32970910e+00	-4.40000000e-01	1.000	 35	 0	
 213	-4.21980607e+00	 6.32970910e+00	-4.40000000e-01	1.000	 35	 0	
 214	-3.16485455e+00	 6.32970910e+00	-4.40000000e-01	1.000	 35	 0	
 215	-2.10990303e+00	 6.32970910e+00	-4.40000000e-01	1.000	 35	 0	
 216	-1.05495152e+00	 6.32970910e+00	-4.40000000e-01	1.000	 35	 0	
 217	 0.00000000e+00	 7.38466061e+00	-4.40000000e-01	1.000	 35	 0	
 218	 1.05495152e+00	 7.38466061e+00	-4.40000000e-01	1.000	 35	 0	
 219	 2.10990303e+00	 7.38466061e+00	-4.40000000e-01	1.000	 35	 0	
 220	 3.16485455e+00	 7.38466061e+00	-4.40000000e-01	1.000	 35	 0	
 221	 4.21980607e+00	 7.38466061e+00	-4.40000000e-01	1.000	 35	 0	
 222	 5.27475758e+00	 7.38466061e+00	-4.40000000e-01	1.000	 35	 0	
 223	 6.32970910e+00	 7.38466061e+00	-4.40000000e-01	1.000	 35	 0	
 224	 7.38466061e+00	 7.38466061e+00	-4.40000000e-01	1.000	 35	 0	
 225	 8.43961213e+00	 7.38466061e+00	-4.40000000e-01	1.000	 35	 0	
 226	 9.49456365e+00	 7.38466061e+00	-4.40000000e-01	1.000	 35	 0	
 227	 1.05495152e+01	 7.38466061e+00	-4.40000000e-01	1.000	 35	 0	
 228	 1.16044667e+01	 7.38466061e+00	-4.40000000e-01	1.000	 35	 0	
 229	 1.26594182e+01	 7.38466061e+00	-4.40000000e-01	1.000	 35	 0	
 230	 1.37143697e+01	 7.38466061e+00	-4.40000000e-01	1.000	 35	 0	
 231	 1.47693212e+01	 7.38466061e+00	-4.40000000e-01	1.000	 35	 0	
 232	 1.58242727e+01	 7.38466061e+00	-4.40000000e-01	1.000	 35	 0	
 233	-1.58242727e+01	 7.38466061e+00	-4.40000000e-01	1.000	 35	 0	
 234	-1.47693212e+01	 7.38466061e+00	-4.40000000e-01	1.000	 35	 0	
 235	-1.37143697e+01	 7.38466061e+00	-4.40000000e-01	1.000	 35	 0	
 236	-1.26594182e+01	 7.38466061e+00	-4.40000000e-01	1.000	 35	 0	
 237	-1.16044667e+01	 7.38466061e+00	-4.40000000e-01	1.000	 35	 0	
 238	-1.05495152e+01	 7.38466061e+00	-4.40000000e-01	1.000	 35	 0	
 239	-9.49456365e+00	 7.38466061e+00	-4.40000000e-01	1.000	 35	 0	
 240	-8.43961213e+00	 7.38466061e+00	-4.40000000e-01	1.000	 35	 0	
 241	-7.38466061e+00	 7.38466061e+00	-4.40000000e-01	1.000	 35	 0	
 242	-6.32970910e+00	 7.38466061e+00	-4.40000000e-01	1.000	 35	 0	
 243	-5.27475758e+00	 7.38466061e+00	-4.40000000e-01	1.000	 35	 0	
 244	-4.21980607e+00	 7.38466061e+00	-4.40000000e-01	1.000	 35	 0	
 245	-3.16485455e+00	 7.38466061e+00	-4.40000000e-01	1.000	 35	 0	
 246	-2.10990303e+00	 7.38466061e+00	-4.40000000e-01	1.000	 35	 0	
 247	-1.05495152e+00	 7.38466061e+00	-4.40000000e-01	1.000	 35	 0	
 248	 0.00000000e+00	 8.43961213e+00	-4.40000000e-01	1.000	 35	 0	
 249	 1.05495152e+00	 8.43961213e+00	-4.40000000e-01	1.000	 35	 0	
 250	 2.10990303e+00	 8.43961213e+00	-4.40000000e-01	1.000	 35	 0	
 251	 3.16485455e+00	 8.43961213e+00	-4.40000000e-01	1.000	 35	 0	
 252	 4.21980607e+00	 8.43961213e+00	-4.40000000e-01	1.000	 35	 0	
 253	 5.27475758e+00	 8.43961213e+00	-4.40000000e-01	1.000	 35	 0	
 254	 6.32970910e+00	 8.43961213e+00	-4.40000000e-01	1.000	 35	 0	
 255	 7.38466061e+00	 8.43961213e+00	-4.40000000e-01	1.000	 35	 0	
 256	 8.43961213e+00	 8.43961213e+00	-4.40000000e-01	1.000	 35	 0	
 257	 9.49456365e+00	 8.43961213e+00	-4.40000000e-01	1.000	 35	 0	
 258	 1.05495152e+01	 8.43961213e+00	-4.40000000e-01	1.000	 35	 0	
 259	 1.16044667e+01	 8.43961213e+00	-4.40000000e-01	1.000	 35	 0	
 260	 1.26594182e+01	 8.43961213e+00	-4.40000000e-01	1.000	 35	 0	
 261	 1.37143697e+01	 8.43961213e+00	-4.40000000e-01	1.000	 35	 0	
 262	 1.47693212e+01	 8.43961213e+00	-4.40000000e-01	1.000	 35	 0	
 263	 1.58242727e+01	 8.43961213e+00	-4.40000000e-01	1.000	 35	 0	
 264	-1.58242727e+01	 8.43961213e+00	-4.40000000e-01	1.000	 35	 0	
 265	-1.47693212e+01	 8.43961213e+00	-4.40000000e-01	1.000	 35	 0	
 266	-1.37143697e+01	 8.43961213e+00	-4.40000000e-01	1.000	 35	 0	
 267	-1.26594182e+01	 8.43961213e+00	-4.40000000e-01	1.000	 35	 0	
 268	-1.16044667e+01	 8.43961213e+00	-4.40000000e-01	1.000	 35	 0	
 269	-1.05495152e+01	 8.43961213e+00	-4.40000000e-01	1.000	 35	 0	
 270	-9.49456365e+00	 8.43961213e+00	-4.40000000e-01	1.000	 35	 0	
 271	-8.43961213e+00	 8.43961213e+00	-4.40000000e-01	1.000	 35	 0	
 272	-7.38466061e+00	 8.43961213e+00	-4.40000000e-01	1.000	 35	 0	
 273	-6.32970910e+00	 8.43961213e+00	-4.40000000e-01	1.000	 35	 0	
 274	-5.27475758e+00	 8.43961213e+00	-4.40000000e-01	1.000	 35	 0	
 275	-4.21980607e+00	 8.43961213e+00	-4.40000000e-01	1.000	 35	 0	
 276	-3.16485455e+00	 8.43961213e+00	-4.40000000e-01	1.000	 35	 0	
 277	-2.10990303e+00	 8.43961213e+00	-4.40000000e-01	1.000	 35	 0	
 278	-1.05495152e+00	 8.43961213e+00	-4.40000000e-01	1.000	 35	 0	
 279	 0.00000000e+00	 9.49456365e+00	-4.40000000e-01	1.000	 35	 0	
 280	 1.05495152e+00	 9.49456365e+00	-4.40000000e-01	1.000	 35	 0	
 281	 2.10990303e+00	 9.49456365e+00	-4.40000000e-01	1.000	 35	 0	
 282	 3.16485455e+00	 9.49456365e+00	-4.40000000e-01	1.000	 35	 0	
 283	 4.21980607e+00	 9.49456365e+00	-4.40000000e-01	1.000	 35	 0	
 284	 5.27475758e+00	 9.49456365e+00	-4.40000000e-01	1.000	 35	 0	
 285	 6.32970910e+00	 9.49456365e+00	-4.40000000e-01	1.000	 35	 0	
 286	 7.38466061e+00	 9.49456365e+00	-4.40000000e-01	1.000	 35	 0	
 287	 8.43961213e+00	 9.49456365e+00	-4.40000000e-01	1.000	 35	 0	
 288	 9.49456365e+00	 9.49456365e+00	-4.40000000e-01	1.000	 35	 0	
 289	 1.05495152e+01	 9.49456365e+00	-4.40000000e-01	1.000	 35	 0	
 290	 1.16044667e+01	 9.49456365e+00	-4.40000000e-01	1.000	 35	 0	
 291	 1.26594182e+01	 9.49456365e+00	-4.40000000e-01	1.000	 35	 0	
 292	 1.37143697e+01	 9.49456365e+00	-4.40000000e-01	1.000	 35	 0	
 293	 1.47693212e+01	 9.49456365e+00	-4.40000000e-01	1.000	 35	 0	
 294	 1.58242727e+01	 9.49456365e+00	-4.40000000e-01	1.000	 35	 0	
 295	-1.58242727e+01	 9.49456365e+00	-4.40000000e-01	1.000	 35	 0	
 296	-1.47693212e+01	 9.49456365e+00	-4.40000000e-01	1.000	 35	 0	
 297	-1.37143697e+01	 9.49456365e+00	-4.40000000e-01	1.000	 35	 0	
 298	-1.26594182e+01	 9.49456365e+00	-4.40000000e-01	1.000	 35	 0	
 299	-1.16044667e+01	 9.49456365e+00	-4.40000000e-01	1.000	 35	 0	
 300	-1.05495152e+01	 9.49456365e+00	-4.40000000e-01	1.000	 35	 0	
 301	-9.49456365e+00	 9.49456365e+00	-4.40000000e-01	1.000	 35	 0	
 302	-8.43961213e+00	 9.49456365e+00	-4.40000000e-01	1.000	 35	 0	
 303	-7.38466061e+00	 9.49456365e+00	-4.40000000e-01	1.000	 35	 0	
 304	-6.32970910e+00	 9.49456365e+00	-4.40000000e-01	1.000	 35	 0	
 305	-5.27475758e+00	 9.49456365e+00	-4.40000000e-01	1.000	 35	 0	
 306	-4.21980607e+00	 9.49456365e+00	-4.40000000e-01	1.000	 35	 0	
 307	-3.16485455e+00	 9.49456365e+00	-4.40000000e-01	1.000	 35	 0	
 308	-2.10990303e+00	 9.49456365e+00	-4.40000000e-01	1.000	 35	 0	
 309	-1.05495152e+00	 9.49456365e+00	-4.40000000e-01	1.000	 35	 0	
 310	 0.00000000e+00	 1.05495152e+01	-4.40000000e-01	1.000	 35	 0	
 311	 1.05495152e+00	 1.05495152e+01	-4.40000000e-01	1.000	 35	 0	
 312	 2.10990303e+00	 1.05495152e+01	-4.40000000e-01	1.000	 35	 0	
 313	 3.16485455e+00	 1.05495152e+01	-4.40000000e-01	1.000	 35	 0	
 314	 4.21980607e+00	 1.05495152e+01	-4.40000000e-01	1.000	 35	 0	
 315	 5.27475758e+00	 1.05495152e+01	-4.40000000e-01	1.000	 35	 0	
 316	 6.32970910e+00	 1.05495152e+01	-4.40000000e-01	1.000	 35	 0	
 317	 7.38466061e+00	 1.05495152e+01	-4.40000000e-01	1.000	 35	 0	
 318	 8.43961213e+00	 1.05495152e+01	-4.40000000e-01	1.000	 35	 0	
 319	 9.49456365e+00	 1.05495152e+01	-4.40000000e-01	1.000	 35	 0	
 320	 1.05495152e+01	 1.05495152e+01	-4.40000000e-01	1.000	 35	 0	
 321	 1.16044667e+01	 1.05495152e+01	-4.40000000e-01	1.000	 35	 0	
 322	 1.26594182e+01	 1.05495152e+01	-4.40000000e-01	1.000	 35	 0	
 323	 1.37143697e+01	 1.05495152e+01	-4.40000000e-01	1.000	 35	 0	
 324	 1.47693212e+01	 1.05495152e+01	-4.40000000e-01	1.000	 35	 0	
 325	 1.58242727e+01	 1.05495152e+01	-4.40000000e-01	1.000	 35	 0	
 326	-1.58242727e+01	 1.05495152e+01	-4.40000000e-01	1.000	 35	 0	
 327	-1.47693212e+01	 1.05495152e+01	-4.40000000e-01	1.000	 35	 0	
 328	-1.37143697e+01	 1.05495152e+01	-4.40000000e-01	1.000	 35	 0	
 329	-1.26594182e+01	 1.05495152e+01	-4.40000000e-01	1.000	 35	 0	
 330	-1.16044667e+01	 1.05495152e+01	-4.40000000e-01	1.000	 35	 0	
 331	-1.05495152e+01	 1.05495152e+01	-4.40000000e-01	1.000	 35	 0	
 332	-9.49456365e+00	 1.05495152e+01	-4.40000000e-01	1.000	 35	 0	
 333	-8.43961213e+00	 1.05495152e+01	-4.40000000e-01	1.000	 35	 0	
 334	-7.38466061e+00	 1.05495152e+01	-4.40000000e-01	1.000	 35	 0	
 335	-6.32970910e+00	 1.05495152e+01	-4.40000000e-01	1.000	 35	 0	
 336	-5.27475758e+00	 1.05495152e+01	-4.40000000e-01	1.000	 35	 0	
 337	-4.21980607e+00	 1.05495152e+01	-4.40000000e-01	1.000	 35	 0	
 338	-3.16485455e+00	 1.05495152e+01	-4.40000000e-01	1.000	 35	 0	
 339	-2.10990303e+00	 1.05495152e+01	-4.40000000e-01	1.000	 35	 0	
 340	-1.05495152e+00	 1.05495152e+01	-4.40000000e-01	1.000	 35	 0	
 341	 0.00000000e+00	 1.16044667e+01	-4.40000000e-01	1.000	 35	 0	
 342	 1.05495152e+00	 1.16044667e+01	-4.40000000e-01	1.000	 35	 0	
 343	 2.10990303e+00	 1.16044667e+01	-4.40000000e-01	1.000	 35	 0	
 344	 3.16485455e+00	 1.16044667e+01	-4.40000000e-01	1.000	 35	 0	
 345	 4.21980607e+00	 1.16044667e+01	-4.40000000e-01	1.000	 35	 0	
 346	 5.27475758e+00	 1.16044667e+01	-4.40000000e-01	1.000	 35	 0	
 347	 6.32970910e+00	 1.16044667e+01	-4.40000000e-01	1.000	 35	 0	
 348	 7.38466061e+00	 1.16044667e+01	-4.40000000e-01	1.000	 35	 0	
 349	 8.43961213e+00	 1.16044667e+01	-4.40000000e-01	1.000	 35	 0	
 350	 9.49456365e+00	 1.16044667e+01	-4.40000000e-01	1.000	 35	 0	
 351	 1.05495152e+01	 1.16044667e+01	-4.40000000e-01	1.000	 35	 0	
 352	 1.16044667e+01	 1.16044667e+01	-4.40000000e-01	1.000	 35	 0	
 353	 1.26594182e+01	 1.16044667e+01	-4.40000000e-01	1.000	 35	 0	
 354	 1.37143697e+01	 1.16044667e+01	-4.40000000e-01	1.000	 35	 0	
 355	 1.47693212e+01	 1.16044667e+01	-4.40000000e-01	1.000	 35	 0	
 356	 1.58242727e+01	 1.16044667e+01	-4.40000000e-01	1.000	 35	 0	
 357	-1.58242727e+01	 1.16044667e+01	-4.40000000e-01	1.000	 35	 0	
 358	-1.47693212e+01	 1.16044667e+01	-4.40000000e-01	1.000	 35	 0	
 359	-1.37143697e+01	 1.16044667e+01	-4.40000000e-01	1.000	 35	 0	
 360	-1.26594182e+01	 1.16044667e+01	-4.40000000e-01	1.000	 35	 0	
 361	-1.16044667e+01	 1.16044667e+01	-4.40000000e-01	1.000	 35	 0	
 362	-1.05495152e+01	 1.16044667e+01	-4.40000000e-01	1.000	 35	 0	
 363	-9.49456365e+00	 1.16044667e+01	-4.40000000e-01	1.000	 35	 0	
 364	-8.43961213e+00	 1.16044667e+01	-4.40000000e-01	1.000	 35	 0	
 365	-7.38466061e+00	 1.16044667e+01	-4.40000000e-01	1.000	 35	 0	
 366	-6.32970910e+00	 1.16044667e+01	-4.40000000e-01	1.000	 35	 0	
 367	-5.27475758e+00	 1.16044667e+01	-4.40000000e-01	1.000	 35	 0	
 368	-4.21980607e+00	 1.16044667e+01	-4.40000000e-01	1.000	 35	 0	
 369	-3.16485455e+00	 1.16044667e+01	-4.40000000e-01	1.000	 35	 0	
 370	-2.10990303e+00	 1.16044667e+01	-4.40000000e-01	1.000	 35	 0	
 371	-1.05495152e+00	 1.16044667e+01	-4.40000000e-01	1.000	 35	 0	
 372	 0.00000000e+00	 1.26594182e+01	-4.40000000e-01	1.000	 35	 0	
 373	 1.05495152e+00	 1.26594182e+01	-4.40000000e-01	1.000	 35	 0	
 374	 2.10990303e+00	 1.26594182e+01	-4.40000000e-01	1.000	 35	 0	
 375	 3.16485455e+00	 1.26594182e+01	-4.40000000e-01	1.000	 35	 0	
 376	 4.21980607e+00	 1.26594182e+01	-4.40000000e-01	1.000	 35	 0	
 377	 5.27475758e+00	 1.26594182e+01	-4.40000000e-01	1.000	 35	 0	
 378	 6.32970910e+00	 1.26594182e+01	-4.40000000e-01	1.000	 35	 0	
 379	 7.38466061e+00	 1.26594182e+01	-4.40000000e-01	1.000	 35	 0	
 380	 8.43961213e+00	 1.26594182e+01	-4.40000000e-01	1.000	 35	 0	
 381	 9.49456365e+00	 1.26594182e+01	-4.40000000e-01	1.000	 35	 0	
 382	 1.05495152e+01	 1.26594182e+01	-4.40000000e-01	1.000	 35	 0	
 383	 1.16044667e+01	 1.26594182e+01	-4.40000000e-01	1.000	 35	 0	
 384	 1.26594182e+01	 1.26594182e+01	-4.40000000e-01	1.000	 35	 0	
 385	 1.37143697e+01	 1.26594182e+01	-4.40000000e-01	1.000	 35	 0	
 386	 1.47693212e+01	 1.26594182e+01	-4.40000000e-01	1.000	 35	 0	
 387	 1.58242727e+01	 1.26594182e+01	-4.40000000e-01	1.000	 35	 0	
 388	-1.58242727e+01	 1.26594182e+01	-4.40000000e-01	1.000	 35	 0	
 389	-1.47693212e+01	 1.26594182e+01	-4.40000000e-01	1.000	 35	 0	
 390	-1.37143697e+01	 1.26594182e+01	-4.40000000e-01	1.000	 35	 0	
 391	-1.26594182e+01	 1.26594182e+01	-4.40000000e-01	1.000	 35	 0	
 392	-1.16044667e+01	 1.26594182e+01	-4.40000000e-01	1.000	 35	 0	
 393	-1.05495152e+01	 1.26594182e+01	-4.40000000e-01	1.000	 35	 0	
 394	-9.49456365e+00	 1.26594182e+01	-4.40000000e-01	1.000	 35	 0	
 395	-8.43961213e+00	 1.26594182e+01	-4.40000000e-01	1.000	 35	 0	
 396	-7.38466061e+00	 1.26594182e+01	-4.40000000e-01	1.000	 35	 0	
 397	-6.32970910e+00	 1.26594182e+01	-4.40000000e-01	1.000	 35	 0	
 398	-5.27475758e+00	 1.26594182e+01	-4.40000000e-01	1.000	 35	 0	
 399	-4.21980607e+00	 1.26594182e+01	-4.40000000e-01	1.000	 35	 0	
 400	-3.16485455e+00	 1.26594182e+01	-4.40000000e-01	1.000	 35	 0	
 401	-2.10990303e+00	 1.26594182e+01	-4.40000000e-01	1.000	 35	 0	
 402	-1.05495152e+00	 1.26594182e+01	-4.40000000e-01	1.000	 35	 0	
 403	 0.00000000e+00	 1.37143697e+01	-4.40000000e-01	1.000	 35	 0	
 404	 1.05495152e+00	 1.37143697e+01	-4.40000000e-01	1.000	 35	 0	
 405	 2.10990303e+00	 1.37143697e+01	-4.40000000e-01	1.000	 35	 0	
 406	 3.16485455e+00	 1.37143697e+01	-4.40000000e-01	1.000	 35	 0	
 407	 4.21980607e+00	 1.37143697e+01	-4.40000000e-01	1.000	 35	 0	
 408	 5.27475758e+00	 1.37143697e+01	-4.40000000e-01	1.000	 35	 0	
 409	 6.32970910e+00	 1.37143697e+01	-4.40000000e-01	1.000	 35	 0	
 410	 7.38466061e+00	 1.37143697e+01	-4.40000000e-01	1.000	 35	 0	
 411	 8.43961213e+00	 1.37143697e+01	-4.40000000e-01	1.000	 35	 0	
 412	 9.49456365e+00	 1.37143697e+01	-4.40000000e-01	1.000	 35	 0	
 413	 1.05495152e+01	 1.37143697e+01	-4.40000000e-01	1.000	 35	 0	
 414	 1.16044667e+01	 1.37143697e+01	-4.40000000e-01	1.000	 35	 0	
 415	 1.26594182e+01	 1.37143697e+01	-4.40000000e-01	1.000	 35	 0	
 416	 1.37143697e+01	 1.37143697e+01	-4.40000000e-01	1.000	 35	 0	
 417	 1.47693212e+01	 1.37143697e+01	-4.40000000e-01	1.000	 35	 0	
 418	 1.58242727e+01	 1.37143697e+01	-4.40000000e-01	1.000	 35	 0	
 419	-1.58242727e+01	 1.37143697e+01	-4.40000000e-01	1.000	 35	 0	
 420	-1.47693212e+01	 1.37143697e+01	-4.40000000e-01	1.000	 35	 0	
 421	-1.37143697e+01	 1.37143697e+01	-4.40000000e-01	1.000	 35	 0	
 422	-1.26594182e+01	 1.37143697e+01	-4.40000000e-01	1.000	 35	 0	
 423	-1.16044667e+01	 1.37143697e+01	-4.40000000e-01	1.000	 35	 0	
 424	-1.05495152e+01	 1.37143697e+01	-4.40000000e-01	1.000	 35	 0	
 425	-9.49456365e+00	 1.37143697e+01	-4.40000000e-01	1.000	 35	 0	
 426	-8.43961213e+00	 1.37143697e+01	-4.40000000e-01	1.000	 35	 0	
 427	-7.38466061e+00	 1.37143697e+01	-4.40000000e-01	1.000	 35	 0	
 428	-6.32970910e+00	 1.37143697e+01	-4.40000000e-01	1.000	 35	 0	
 429	-5.27475758e+00	 1.37143697e+01	-4.40000000e-01	1.000	 35	 0	
 430	-4.21980607e+00	 1.37143697e+01	-4.40000000e-01	1.000	 35	 0	
 431	-3.16485455e+00	 1.37143697e+01	-4.40000000e-01	1.000	 35	 0	
 432	-2.10990303e+00	 1.37143697e+01	-4.40000000e-01	1.000	 35	 0	
 433	-1.05495152e+00	 1.37143697e+01	-4.40000000e-01	1.000	 35	 0	
 434	 0.00000000e+00	 1.47693212e+01	-4.40000000e-01	1.000	 35	 0	
 435	 1.05495152e+00	 1.47693212e+01	-4.40000000e-01	1.000	 35	 0	
 436	 2.10990303e+00	 1.47693212e+01	-4.40000000e-01	1.000	 35	 0	
 437	 3.16485455e+00	 1.47693212e+01	-4.40000000e-01	1.000	 35	 0	
 438	 4.21980607e+00	 1.47693212e+01	-4.40000000e-01	1.000	 35	 0	
 439	 5.27475758e+00	 1.47693212e+01	-4.40000000e-01	1.000	 35	 0	
 440	 6.32970910e+00	 1.47693212e+01	-4.40000000e-01	1.000	 35	 0	
 441	 7.38466061e+00	 1.47693212e+01	-4.40000000e-01	1.000	 35	 0	
 442	 8.43961213e+00	 1.47693212e+01	-4.40000000e-01	1.000	 35	 0	
 443	 9.49456365e+00	 1.47693212e+01	-4.40000000e-01	1.000	 35	 0	
 444	 1.05495152e+01	 1.47693212e+01	-4.40000000e-01	1.000	 35	 0	