ITEM: TIMESTEP
0
ITEM: BOX BOUNDS pp pp ff
-1.60297184e+01	 1.60297184e+01	
-1.60297184e+01	 1.60297184e+01	
-1.10000000e+00	 1.10000000e+00	
ITEM: NUMBER OF ATOMS
1922
ITEM: ATOMS index x y z diameter charge species
   0	 0.00000000e+00	 0.00000000e+00	-4.40000000e-01	1.000	 35	 0	
   1	 1.03417538e+00	 0.00000000e+00	-4.40000000e-01	1.000	 35	 0	
   2	 2.06835076e+00	 0.00000000e+00	-4.40000000e-01	1.000	 35	 0	
   3	 3.10252614e+00	 0.00000000e+00	-4.40000000e-01	1.000	 35	 0	
   4	 4.13670152e+00	 0.00000000e+00	-4.40000000e-01	1.000	 35	 0	
   5	 5.17087690e+00	 0.00000000e+00	-4.40000000e-01	1.000	 35	 0	
   6	 6.20505228e+00	 0.00000000e+00	-4.40000000e-01	1.000	 35	 0	
   7	 7.23922766e+00	 0.00000000e+00	-4.40000000e-01	1.000	 35	 0	
   8	 8.27340304e+00	 0.00000000e+00	-4.40000000e-01	1.000	 35	 0	
   9	 9.30757842e+00	 0.00000000e+00	-4.40000000e-01	1.000	 35	 0	
  10	 1.03417538e+01	 0.00000000e+00	-4.40000000e-01	1.000	 35	 0	
  11	 1.13759292e+01	 0.00000000e+00	-4.40000000e-01	1.000	 35	 0	
  12	 1.24101046e+01	 0.00000000e+00	-4.40000000e-01	1.000	 35	 0	
  13	 1.34442799e+01	 0.00000000e+00	-4.40000000e-01	1.000	 35	 0	
  14	 1.44784553e+01	 0.00000000e+00	-4.40000000e-01	1.000	 35	 0	
  15	 1.55126307e+01	 0.00000000e+00	-4.40000000e-01	1.000	 35	 0	
  16	 1.65468061e+01	 0.00000000e+00	-4.40000000e-01	1.000	 35	 0	
  17	 1.75809815e+01	 0.00000000e+00	-4.40000000e-01	1.000	 35	 0	
  18	 1.86151568e+01	 0.00000000e+00	-4.40000000e-01	1.000	 35	 0	
  19	 1.96493322e+01	 0.00000000e+00	-4.40000000e-01	1.000	 35	 0	
  20	 2.06835076e+01	 0.00000000e+00	-4.40000000e-01	1.000	 35	 0	
  21	 2.17176830e+01	 0.00000000e+00	-4.40000000e-01	1.000	 35	 0	
  22	 2.27518584e+01	 0.00000000e+00	-4.40000000e-01	1.000	 35	 0	
  23	 2.37860337e+01	 0.00000000e+00	-4.40000000e-01	1.000	 35	 0	
  24	 2.48202091e+01	 0.00000000e+00	-4.40000000e-01	1.000	 35	 0	
  25	 2.58543845e+01	 0.00000000e+00	-4.40000000e-01	1.000	 35	 0	
  26	 2.68885599e+01	 0.00000000e+00	-4.40000000e-01	1.000	 35	 0	
  27	 2.79227353e+01	 0.00000000e+00	-4.40000000e-01	1.000	 35	 0	
  28	 2.89569106e+01	 0.00000000e+00	-4.40000000e-01	1.000	 35	 0	
  29	 2.99910860e+01	 0.00000000e+00	-4.40000000e-01	1.000	 35	 0	
  30	 3.10252614e+01	 0.00000000e+00	-4.40000000e-01	1.000	 35	 0	
  31	 0.00000000e+00	 1.03417538e+00	-4.40000000e-01	1.000	 35	 0	
  32	 1.03417538e+00	 1.03417538e+00	-4.40000000e-01	1.000	 35	 0	
  33	 2.06835076e+00	 1.03417538e+00	-4.40000000e-01	1.000	 35	 0	
  34	 3.10252614e+00	 1.03417538e+00	-4.40000000e-01	1.000	 35	 0	
  35	 4.13670152e+00	 1.03417538e+00	-4.40000000e-01	1.000	 35	 0	
  36	 5.17087690e+00	 1.03417538e+00	-4.40000000e-01	1.000	 35	 0	
  37	 6.20505228e+00	 1.03417538e+00	-4.40000000e-01	1.000	 35	 0	
  38	 7.23922766e+00	 1.03417538e+00	-4.40000000e-01	1.000	 35	 0	
  39	 8.27340304e+00	 1.03417538e+00	-4.40000000e-01	1.000	 35	 0	
  40	 9.30757842e+00	 1.03417538e+00	-4.40000000e-01	1.000	 35	 0	
  41	 1.03417538e+01	 1.03417538e+00	-4.40000000e-01	1.000	 35	 0	
  42	 1.13759292e+01	 1.03417538e+00	-4.40000000e-01	1.000	 35	 0	
  43	 1.24101046e+01	 1.03417538e+00	-4.40000000e-01	1.000	 35	 0	
  44	 1.34442799e+01	 1.03417538e+00	-4.40000000e-01	1.000	 35	 0	
  45	 1.44784553e+01	 1.03417538e+00	-4.40000000e-01	1.000	 35	 0	
  46	 1.55126307e+01	 1.03417538e+00	-4.40000000e-01	1.000	 35	 0	
  47	 1.65468061e+01	 1.03417538e+00	-4.40000000e-01	1.000	 35	 0	
  48	 1.75809815e+01	 1.03417538e+00	-4.40000000e-01	1.000	 35	 0	
  49	 1.86151568e+01	 1.03417538e+00	-4.40000000e-01	1.000	 35	 0	
  50	 1.96493322e+01	 1.03417538e+00	-4.40000000e-01	1.000	 35	 0	
  51	 2.06835076e+01	 1.03417538e+00	-4.40000000e-01	1.000	 35	 0	
  52	 2.17176830e+01	 1.03417538e+00	-4.40000000e-01	1.000	 35	 0	
  53	 2.27518584e+01	 1.03417538e+00	-4.40000000e-01	1.000	 35	 0	
  54	 2.37860337e+01	 1.03417538e+00	-4.40000000e-01	1.000	 35	 0	
  55	 2.48202091e+01	 1.03417538e+00	-4.40000000e-01	1.000	 35	 0	
  56	 2.58543845e+01	 1.03417538e+00	-4.40000000e-01	1.000	 35	 0	
  57	 2.68885599e+01	 1.03417538e+00	-4.40000000e-01	1.000	 35	 0	
  58	 2.79227353e+01	 1.03417538e+00	-4.40000000e-01	1.000	 35	 0	
  59	 2.89569106e+01	 1.03417538e+00	-4.40000000e-01	1.000	 35	 0	
  60	 2.99910860e+01	 1.03417538e+00	-4.40000000e-01	1.000	 35	 0	
  61	 3.10252614e+01	 1.03417538e+00	-4.40000000e-01	1.000	 35	 0	
  62	 0.00000000e+00	 2.06835076e+00	-4.40000000e-01	1.000	 35	 0	
  63	 1.03417538e+00	 2.06835076e+00	-4.40000000e-01	1.000	 35	 0	
  64	 2.06835076e+00	 2.06835076e+00	-4.40000000e-01	1.000	 35	 0	
  65	 3.10252614e+00	 2.06835076e+00	-4.40000000e-01	1.000	 35	 0	
  66	 4.13670152e+00	 2.06835076e+00	-4.40000000e-01	1.000	 35	 0	
  67	 5.17087690e+00	 2.06835076e+00	-4.40000000e-01	1.000	 35	 0	
  68	 6.20505228e+00	 2.06835076e+00	-4.40000000e-01	1.000	 35	 0	
  69	 7.23922766e+00	 2.06835076e+00	-4.40000000e-01	1.000	 35	 0	
  70	 8.27340304e+00	 2.06835076e+00	-4.40000000e-01	1.000	 35	 0	
  71	 9.30757842e+00	 2.06835076e+00	-4.40000000e-01	1.000	 35	 0	
  72	 1.03417538e+01	 2.06835076e+00	-4.40000000e-01	1.000	 35	 0	
  73	 1.13759292e+01	 2.06835076e+00	-4.40000000e-01	1.000	 35	 0	
  74	 1.24101046e+01	 2.06835076e+00	-4.40000000e-01	1.000	 35	 0	
  75	 1.34442799e+01	 2.06835076e+00	-4.40000000e-01	1.000	 35	 0	
  76	 1.44784553e+01	 2.06835076e+00	-4.40000000e-01	1.000	 35	 0	
  77	 1.55126307e+01	 2.06835076e+00	-4.40000000e-01	1.000	 35	 0	
  78	 1.65468061e+01	 2.06835076e+00	-4.40000000e-01	1.000	 35	 0	
  79	 1.75809815e+01	 2.06835076e+00	-4.40000000e-01	1.000	 35	 0	
  80	 1.86151568e+01	 2.06835076e+00	-4.40000000e-01	1.000	 35	 0	
  81	 1.96493322e+01	 2.06835076e+00	-4.40000000e-01	1.000	 35	 0	
  82	 2.06835076e+01	 2.06835076e+00	-4.40000000e-01	1.000	 35	 0	
  83	 2.17176830e+01	 2.06835076e+00	-4.40000000e-01	1.000	 35	 0	
  84	 2.27518584e+01	 2.06835076e+00	-4.40000000e-01	1.000	 35	 0	
  85	 2.37860337e+01	 2.06835076e+00	-4.40000000e-01	1.000	 35	 0	
  86	 2.48202091e+01	 2.06835076e+00	-4.40000000e-01	1.000	 35	 0	
  87	 2.58543845e+01	 2.06835076e+00	-4.40000000e-01	1.000	 35	 0	
  88	 2.68885599e+01	 2.06835076e+00	-4.40000000e-01	1.000	 35	 0	
  89	 2.79227353e+01	 2.06835076e+00	-4.40000000e-01	1.000	 35	 0	
  90	 2.89569106e+01	 2.06835076e+00	-4.40000000e-01	1.000	 35	 0	
  91	 2.99910860e+01	 2.06835076e+00	-4.40000000e-01	1.000	 35	 0	
  92	 3.10252614e+01	 2.06835076e+00	-4.40000000e-01	1.000	 35	 0	
  93	 0.00000000e+00	 3.10252614e+00	-4.40000000e-01	1.000	 35	 0	
  94	 1.03417538e+00	 3.10252614e+00	-4.40000000e-01	1.000	 35	 0	
  95	 2.06835076e+00	 3.10252614e+00	-4.40000000e-01	1.000	 35	 0	
  96	 3.10252614e+00	 3.10252614e+00	-4.40000000e-01	1.000	 35	 0	
  97	 4.13670152e+00	 3.10252614e+00	-4.40000000e-01	1.000	 35	 0	
  98	 5.17087690e+00	 3.10252614e+00	-4.40000000e-01	1.000	 35	 0	
  99	 6.20505228e+00	 3.10252614e+00	-4.40000000e-01	1.000	 35	 0	
 100	 7.23922766e+00	 3.10252614e+00	-4.40000000e-01	1.000	 35	 0	
 101	 8.27340304e+00	 3.10252614e+00	-4.40000000e-01	1.000	 35	 0	
 102	 9.30757842e+00	 3.10252614e+00	-4.40000000e-01	1.000	 35	 0	
 103	 1.03417538e+01	 3.10252614e+00	-4.40000000e-01	1.000	 35	 0	
 104	 1.13759292e+01	 3.10252614e+00	-4.40000000e-01	1.000	 35	 0	
 105	 1.24101046e+01	 3.10252614e+00	-4.40000000e-01	1.000	 35	 0	
 106	 1.34442799e+01	 3.10252614e+00	-4.40000000e-01	1.000	 35	 0	
 107	 1.44784553e+01	 3.10252614e+00	-4.40000000e-01	1.000	 35	 0	
 108	 1.55126307e+01	 3.10252614e+00	-4.40000000e-01	1.000	 35	 0	
 109	 1.65468061e+01	 3.10252614e+00	-4.40000000e-01	1.000	 35	 0	
 110	 1.75809815e+01	 3.10252614e+00	-4.40000000e-01	1.000	 35	 0	
 111	 1.86151568e+01	 3.10252614e+00	-4.40000000e-01	1.000	 35	 0	
 112	 1.96493322e+01	 3.10252614e+00	-4.40000000e-01	1.000	 35	 0	
 113	 2.06835076e+01	 3.10252614e+00	-4.40000000e-01	1.000	 35	 0	
 114	 2.17176830e+01	 3.10252614e+00	-4.40000000e-01	1.000	 35	 0	
 115	 2.27518584e+01	 3.10252614e+00	-4.40000000e-01	1.000	 35	 0	
 116	 2.37860337e+01	 3.10252614e+00	-4.40000000e-01	1.000	 35	 0	
 117	 2.48202091e+01	 3.10252614e+00	-4.40000000e-01	1.000	 35	 0	
 118	 2.58543845e+01	 3.10252614e+00	-4.40000000e-01	1.000	 35	 0	
 119	 2.68885599e+01	 3.10252614e+00	-4.40000000e-01	1.000	 35	 0	
 120	 2.79227353e+01	 3.10252614e+00	-4.40000000e-01	1.000	 35	 0	
 121	 2.89569106e+01	 3.10252614e+00	-4.40000000e-01	1.000	 35	 0	
 122	 2.99910860e+01	 3.10252614e+00	-4.40000000e-01	1.000	 35	 0	
 123	 3.10252614e+01	 3.10252614e+00	-4.40000000e-01	1.000	 35	 0	
 124	 0.00000000e+00	 4.13670152e+00	-4.40000000e-01	1.000	 35	 0	
 125	 1.03417538e+00	 4.13670152e+00	-4.40000000e-01	1.000	 35	 0	
 126	 2.06835076e+00	 4.13670152e+00	-4.40000000e-01	1.000	 35	 0	
 127	 3.10252614e+00	 4.13670152e+00	-4.40000000e-01	1.000	 35	 0	
 128	 4.13670152e+00	 4.13670152e+00	-4.40000000e-01	1.000	 35	 0	
 129	 5.17087690e+00	 4.13670152e+00	-4.40000000e-01	1.000	 35	 0	
 130	 6.20505228e+00	 4.13670152e+00	-4.40000000e-01	1.000	 35	 0	
 131	 7.23922766e+00	 4.13670152e+00	-4.40000000e-01	1.000	 35	 0	
 132	 8.27340304e+00	 4.13670152e+00	-4.40000000e-01	1.000	 35	 0	
 133	 9.30757842e+00	 4.13670152e+00	-4.40000000e-01	1.000	 35	 0	
 134	 1.03417538e+01	 4.13670152e+00	-4.40000000e-01	1.000	 35	 0	
 135	 1.13759292e+01	 4.13670152e+00	-4.40000000e-01	1.000	 35	 0	
 136	 1.24101046e+01	 4.13670152e+00	-4.40000000e-01	1.000	 35	 0	
 137	 1.34442799e+01	 4.13670152e+00	-4.40000000e-01	1.000	 35	 0	
 138	 1.44784553e+01	 4.13670152e+00	-4.40000000e-01	1.000	 35	 0	
 139	 1.55126307e+01	 4.13670152e+00	-4.40000000e-01	1.000	 35	 0	
 140	 1.65468061e+01	 4.13670152e+00	-4.40000000e-01	1.000	 35	 0	
 141	 1.75809815e+01	 4.13670152e+00	-4.40000000e-01	1.000	 35	 0	
 142	 1.86151568e+01	 4.13670152e+00	-4.40000000e-01	1.000	 35	 0	
 143	 1.96493322e+01	 4.13670152e+00	-4.40000000e-01	1.000	 35	 0	
 144	 2.06835076e+01	 4.13670152e+00	-4.40000000e-01	1.000	 35	 0	
 145	 2.17176830e+01	 4.13670152e+00	-4.40000000e-01	1.000	 35	 0	
 146	 2.27518584e+01	 4.13670152e+00	-4.40000000e-01	1.000	 35	 0	
 147	 2.37860337e+01	 4.13670152e+00	-4.40000000e-01	1.000	 35	 0	
 148	 2.48202091e+01	 4.13670152e+00	-4.40000000e-01	1.000	 35	 0	
 149	 2.58543845e+01	 4.13670152e+00	-4.40000000e-01	1.000	 35	 0	
 150	 2.68885599e+01	 4.13670152e+00	-4.40000000e-01	1.000	 35	 0	
 151	 2.79227353e+01	 4.13670152e+00	-4.40000000e-01	1.000	 35	 0	
 152	 2.89569106e+01	 4.13670152e+00	-4.40000000e-01	1.000	 35	 0	
 153	 2.99910860e+01	 4.13670152e+00	-4.40000000e-01	1.000	 35	 0	
 154	 3.10252614e+01	 4.13670152e+00	-4.40000000e-01	1.000	 35	 0	
 155	 0.00000000e+00	 5.17087690e+00	-4.40000000e-01	1.000	 35	 0	
 156	 1.03417538e+00	 5.17087690e+00	-4.40000000e-01	1.000	 35	 0	
 157	 2.06835076e+00	 5.17087690e+00	-4.40000000e-01	1.000	 35	 0	
 158	 3.10252614e+00	 5.17087690e+00	-4.40000000e-01	1.000	 35	 0	
 159	 4.13670152e+00	 5.17087690e+00	-4.40000000e-01	1.000	 35	 0	
 160	 5.17087690e+00	 5.17087690e+00	-4.40000000e-01	1.000	 35	 0	
 161	 6.20505228e+00	 5.17087690e+00	-4.40000000e-01	1.000	 35	 0	
 162	 7.23922766e+00	 5.17087690e+00	-4.40000000e-01	1.000	 35	 0	
 163	 8.27340304e+00	 5.17087690e+00	-4.40000000e-01	1.000	 35	 0	
 164	 9.30757842e+00	 5.17087690e+00	-4.40000000e-01	1.000	 35	 0	
 165	 1.03417538e+01	 5.17087690e+00	-4.40000000e-01	1.000	 35	 0	
 166	 1.13759292e+01	 5.17087690e+00	-4.40000000e-01	1.000	 35	 0	
 167	 1.24101046e+01	 5.17087690e+00	-4.40000000e-01	1.000	 35	 0	
 168	 1.34442799e+01	 5.17087690e+00	-4.40000000e-01	1.000	 35	 0	
 169	 1.44784553e+01	 5.17087690e+00	-4.40000000e-01	1.000	 35	 0	
 170	 1.55126307e+01	 5.17087690e+00	-4.40000000e-01	1.000	 35	 0	
 171	 1.65468061e+01	 5.17087690e+00	-4.40000000e-01	1.000	 35	 0	
 172	 1.75809815e+01	 5.17087690e+00	-4.40000000e-01	1.000	 35	 0	
 173	 1.86151568e+01	 5.17087690e+00	-4.40000000e-01	1.000	 35	 0	
 174	 1.96493322e+01	 5.17087690e+00	-4.40000000e-01	1.000	 35	 0	
 175	 2.06835076e+01	 5.17087690e+00	-4.40000000e-01	1.000	 35	 0	
 176	 2.17176830e+01	 5.17087690e+00	-4.40000000e-01	1.000	 35	 0	
 177	 2.27518584e+01	 5.17087690e+00	-4.40000000e-01	1.000	 35	 0	
 178	 2.37860337e+01	 5.17087690e+00	-4.40000000e-01	1.000	 35	 0	
 179	 2.48202091e+01	 5.17087690e+00	-4.40000000e-01	1.000	 35	 0	
 180	 2.58543845e+01	 5.17087690e+00	-4.40000000e-01	1.000	 35	 0	
 181	 2.68885599e+01	 5.17087690e+00	-4.40000000e-01	1.000	 35	 0	
 182	 2.79227353e+01	 5.17087690e+00	-4.40000000e-01	1.000	 35	 0	
 183	 2.89569106e+01	 5.17087690e+00	-4.40000000e-01	1.000	 35	 0	
 184	 2.99910860e+01	 5.17087690e+00	-4.40000000e-01	1.000	 35	 0	
 185	 3.10252614e+01	 5.17087690e+00	-4.40000000e-01	1.000	 35	 0	
 186	 0.00000000e+00	 6.20505228e+00	-4.40000000e-01	1.000	 35	 0	
 187	 1.03417538e+00	 6.20505228e+00	-4.40000000e-01	1.000	 35	 0	
 188	 2.06835076e+00	 6.20505228e+00	-4.40000000e-01	1.000	 35	 0	
 189	 3.10252614e+00	 6.20505228e+00	-4.40000000e-01	1.000	 35	 0	
 190	 4.13670152e+00	 6.20505228e+00	-4.40000000e-01	1.000	 35	 0	
 191	 5.17087690e+00	 6.20505228e+00	-4.40000000e-01	1.000	 35	 0	
 192	 6.20505228e+00	 6.20505228e+00	-4.40000000e-01	1.000	 35	 0	
 193	 7.23922766e+00	 6.20505228e+00	-4.40000000e-01	1.000	 35	 0	
 194	 8.27340304e+00	 6.20505228e+00	-4.40000000e-01	1.000	 35	 0	
 195	 9.30757842e+00	 6.20505228e+00	-4.40000000e-01	1.000	 35	 0	
 196	 1.03417538e+01	 6.20505228e+00	-4.40000000e-01	1.000	 35	 0	
 197	 1.13759292e+01	 6.20505228e+00	-4.40000000e-01	1.000	 35	 0	
 198	 1.24101046e+01	 6.20505228e+00	-4.40000000e-01	1.000	 35	 0	
 199	 1.34442799e+01	 6.20505228e+00	-4.40000000e-01	1.000	 35	 0	
 200	 1.44784553e+01	 6.20505228e+00	-4.40000000e-01	1.000	 35	 0	
 201	 1.55126307e+01	 6.20505228e+00	-4.40000000e-01	1.000	 35	 0	
 202	 1.65468061e+01	 6.20505228e+00	-4.40000000e-01	1.000	 35	 0	
 203	 1.75809815e+01	 6.20505228e+00	-4.40000000e-01	1.000	 35	 0	
 204	 1.86151568e+01	 6.20505228e+00	-4.40000000e-01	1.000	 35	 0	
 205	 1.96493322e+01	 6.20505228e+00	-4.40000000e-01	1.000	 35	 0	
 206	 2.06835076e+01	 6.20505228e+00	-4.40000000e-01	1.000	 35	 0	
 207	 2.17176830e+01	 6.20505228e+00	-4.40000000e-01	1.000	 35	 0	
 208	 2.27518584e+01	 6.20505228e+00	-4.40000000e-01	1.000	 35	 0	
 209	 2.37860337e+01	 6.20505228e+00	-4.40000000e-01	1.000	 35	 0	
 210	 2.48202091e+01	 6.20505228e+00	-4.40000000e-01	1.000	 35	 0	
 211	 2.58543845e+01	 6.20505228e+00	-4.40000000e-01	1.000	 35	 0	
 212	 2.68885599e+01	 6.20505228e+00	-4.40000000e-01	1.000	 35	 0	
 213	 2.79227353e+01	 6.20505228e+00	-4.40000000e-01	1.000	 35	 0	
 214	 2.89569106e+01	 6.20505228e+00	-4.40000000e-01	1.000	 35	 0	
 215	 2.99910860e+01	 6.20505228e+00	-4.40000000e-01	1.000	 35	 0	
 216	 3.10252614e+01	 6.20505228e+00	-4.40000000e-01	1.000	 35	 0	
 217	 0.00000000e+00	 7.23922766e+00	-4.40000000e-01	1.000	 35	 0	
 218	 1.03417538e+00	 7.23922766e+00	-4.40000000e-01	1.000	 35	 0	
 219	 2.06835076e+00	 7.23922766e+00	-4.40000000e-01	1.000	 35	 0	
 220	 3.10252614e+00	 7.23922766e+00	-4.40000000e-01	1.000	 35	 0	
 221	 4.13670152e+00	 7.23922766e+00	-4.40000000e-01	1.000	 35	 0	
 222	 5.17087690e+00	 7.23922766e+00	-4.40000000e-01	1.000	 35	 0	
 223	 6.20505228e+00	 7.23922766e+00	-4.40000000e-01	1.000	 35	 0	
 224	 7.23922766e+00	 7.23922766e+00	-4.40000000e-01	1.000	 35	 0	
 225	 8.27340304e+00	 7.23922766e+00	-4.40000000e-01	1.000	 35	 0	
 226	 9.30757842e+00	 7.23922766e+00	-4.40000000e-01	1.000	 35	 0	
 227	 1.03417538e+01	 7.23922766e+00	-4.40000000e-01	1.000	 35	 0	
 228	 1.13759292e+01	 7.23922766e+00	-4.40000000e-01	1.000	 35	 0	
 229	 1.24101046e+01	 7.23922766e+00	-4.40000000e-01	1.000	 35	 0	
 230	 1.34442799e+01	 7.23922766e+00	-4.40000000e-01	1.000	 35	 0	
 231	 1.44784553e+01	 7.23922766e+00	-4.40000000e-01	1.000	 35	 0	
 232	 1.55126307e+01	 7.23922766e+00	-4.40000000e-01	1.000	 35	 0	
 233	 1.65468061e+01	 7.23922766e+00	-4.40000000e-01	1.000	 35	 0	
 234	 1.75809815e+01	 7.23922766e+00	-4.40000000e-01	1.000	 35	 0	
 235	 1.86151568e+01	 7.23922766e+00	-4.40000000e-01	1.000	 35	 0	
 236	 1.96493322e+01	 7.23922766e+00	-4.40000000e-01	1.000	 35	 0	
 237	 2.06835076e+01	 7.23922766e+00	-4.40000000e-01	1.000	 35	 0	
 238	 2.17176830e+01	 7.23922766e+00	-4.40000000e-01	1.000	 35	 0	
 239	 2.27518584e+01	 7.23922766e+00	-4.40000000e-01	1.000	 35	 0	
 240	 2.37860337e+01	 7.23922766e+00	-4.40000000e-01	1.000	 35	 0	
 241	 2.48202091e+01	 7.23922766e+00	-4.40000000e-01	1.000	 35	 0	
 242	 2.58543845e+01	 7.23922766e+00	-4.40000000e-01	1.000	 35	 0	
 243	 2.68885599e+01	 7.23922766e+00	-4.40000000e-01	1.000	 35	 0	
 244	 2.79227353e+01	 7.23922766e+00	-4.40000000e-01	1.000	 35	 0	
 245	 2.89569106e+01	 7.23922766e+00	-4.40000000e-01	1.000	 35	 0	
 246	 2.99910860e+01	 7.23922766e+00	-4.40000000e-01	1.000	 35	 0	
 247	 3.10252614e+01	 7.23922766e+00	-4.40000000e-01	1.000	 35	 0	
 248	 0.00000000e+00	 8.27340304e+00	-4.40000000e-01	1.000	 35	 0	
 249	 1.03417538e+00	 8.27340304e+00	-4.40000000e-01	1.000	 35	 0	
 250	 2.06835076e+00	 8.27340304e+00	-4.40000000e-01	1.000	 35	 0	
 251	 3.10252614e+00	 8.27340304e+00	-4.40000000e-01	1.000	 35	 0	
 252	 4.13670152e+00	 8.27340304e+00	-4.40000000e-01	1.000	 35	 0	
 253	 5.17087690e+00	 8.27340304e+00	-4.40000000e-01	1.000	 35	 0	
 254	 6.20505228e+00	 8.27340304e+00	-4.40000000e-01	1.000	 35	 0	
 255	 7.23922766e+00	 8.27340304e+00	-4.40000000e-01	1.000	 35	 0	
 256	 8.27340304e+00	 8.27340304e+00	-4.40000000e-01	1.000	 35	 0	
 257	 9.30757842e+00	 8.27340304e+00	-4.40000000e-01	1.000	 35	 0	
 258	 1.03417538e+01	 8.27340304e+00	-4.40000000e-01	1.000	 35	 0	
 259	 1.13759292e+01	 8.27340304e+00	-4.40000000e-01	1.000	 35	 0	
 260	 1.24101046e+01	 8.27340304e+00	-4.40000000e-01	1.000	 35	 0	
 261	 1.34442799e+01	 8.27340304e+00	-4.40000000e-01	1.000	 35	 0	
 262	 1.44784553e+01	 8.27340304e+00	-4.40000000e-01	1.000	 35	 0	
 263	 1.55126307e+01	 8.27340304e+00	-4.40000000e-01	1.000	 35	 0	
 264	 1.65468061e+01	 8.27340304e+00	-4.40000000e-01	1.000	 35	 0	
 265	 1.75809815e+01	 8.27340304e+00	-4.40000000e-01	1.000	 35	 0	
 266	 1.86151568e+01	 8.27340304e+00	-4.40000000e-01	1.000	 35	 0	
 267	 1.96493322e+01	 8.27340304e+00	-4.40000000e-01	1.000	 35	 0	
 268	 2.06835076e+01	 8.27340304e+00	-4.40000000e-01	1.000	 35	 0	
 269	 2.17176830e+01	 8.27340304e+00	-4.40000000e-01	1.000	 35	 0	
 270	 2.27518584e+01	 8.27340304e+00	-4.40000000e-01	1.000	 35	 0	
 271	 2.37860337e+01	 8.27340304e+00	-4.40000000e-01	1.000	 35	 0	
 272	 2.48202091e+01	 8.27340304e+00	-4.40000000e-01	1.000	 35	 0	
 273	 2.58543845e+01	 8.27340304e+00	-4.40000000e-01	1.000	 35	 0	
 274	 2.68885599e+01	 8.27340304e+00	-4.40000000e-01	1.000	 35	 0	
 275	 2.79227353e+01	 8.27340304e+00	-4.40000000e-01	1.000	 35	 0	
 276	 2.89569106e+01	 8.27340304e+00	-4.40000000e-01	1.000	 35	 0	
 277	 2.99910860e+01	 8.27340304e+00	-4.40000000e-01	1.000	 35	 0	
 278	 3.10252614e+01	 8.27340304e+00	-4.40000000e-01	1.000	 35	 0	
 279	 0.00000000e+00	 9.30757842e+00	-4.40000000e-01	1.000	 35	 0	
 280	 1.03417538e+00	 9.30757842e+00	-4.40000000e-01	1.000	 35	 0	
 281	 2.06835076e+00	 9.30757842e+00	-4.40000000e-01	1.000	 35	 0	
 282	 3.10252614e+00	 9.30757842e+00	-4.40000000e-01	1.000	 35	 0	
 283	 4.13670152e+00	 9.30757842e+00	-4.40000000e-01	1.000	 35	 0	
 284	 5.17087690e+00	 9.30757842e+00	-4.40000000e-01	1.000	 35	 0	
 285	 6.20505228e+00	 9.30757842e+00	-4.40000000e-01	1.000	 35	 0	
 286	 7.23922766e+00	 9.30757842e+00	-4.40000000e-01	1.000	 35	 0	
 287	 8.27340304e+00	 9.30757842e+00	-4.40000000e-01	1.000	 35	 0	
 288	 9.30757842e+00	 9.30757842e+00	-4.40000000e-01	1.000	 35	 0	
 289	 1.03417538e+01	 9.30757842e+00	-4.40000000e-01	1.000	 35	 0	
 290	 1.13759292e+01	 9.30757842e+00	-4.40000000e-01	1.000	 35	 0	
 291	 1.24101046e+01	 9.30757842e+00	-4.40000000e-01	1.000	 35	 0	
 292	 1.34442799e+01	 9.30757842e+00	-4.40000000e-01	1.000	 35	 0	
 293	 1.44784553e+01	 9.30757842e+00	-4.40000000e-01	1.000	 35	 0	
 294	 1.55126307e+01	 9.30757842e+00	-4.40000000e-01	1.000	 35	 0	
 295	 1.65468061e+01	 9.30757842e+00	-4.40000000e-01	1.000	 35	 0	
 296	 1.75809815e+01	 9.30757842e+00	-4.40000000e-01	1.000	 35	 0	
 297	 1.86151568e+01	 9.30757842e+00	-4.40000000e-01	1.000	 35	 0	
 298	 1.96493322e+01	 9.30757842e+00	-4.40000000e-01	1.000	 35	 0	
 299	 2.06835076e+01	 9.30757842e+00	-4.40000000e-01	1.000	 35	 0	
 300	 2.17176830e+01	 9.30757842e+00	-4.40000000e-01	1.000	 35	 0	
 301	 2.27518584e+01	 9.30757842e+00	-4.40000000e-01	1.000	 35	 0	
 302	 2.37860337e+01	 9.30757842e+00	-4.40000000e-01	1.000	 35	 0	
 303	 2.48202091e+01	 9.30757842e+00	-4.40000000e-01	1.000	 35	 0	
 304	 2.58543845e+01	 9.30757842e+00	-4.40000000e-01	1.000	 35	 0	
 305	 2.68885599e+01	 9.30757842e+00	-4.40000000e-01	1.000	 35	 0	
 306	 2.79227353e+01	 9.30757842e+00	-4.40000000e-01	1.000	 35	 0	
 307	 2.89569106e+01	 9.30757842e+00	-4.40000000e-01	1.000	 35	 0	
 308	 2.99910860e+01	 9.30757842e+00	-4.40000000e-01	1.000	 35	 0	
 309	 3.10252614e+01	 9.30757842e+00	-4.40000000e-01	1.000	 35	 0	
 310	 0.00000000e+00	 1.03417538e+01	-4.40000000e-01	1.000	 35	 0	
 311	 1.03417538e+00	 1.03417538e+01	-4.40000000e-01	1.000	 35	 0	
 312	 2.06835076e+00	 1.03417538e+01	-4.40000000e-01	1.000	 35	 0	
 313	 3.10252614e+00	 1.03417538e+01	-4.40000000e-01	1.000	 35	 0	
 314	 4.13670152e+00	 1.03417538e+01	-4.40000000e-01	1.000	 35	 0	
 315	 5.17087690e+00	 1.03417538e+01	-4.40000000e-01	1.000	 35	 0	
 316	 6.20505228e+00	 1.03417538e+01	-4.40000000e-01	1.000	 35	 0	
 317	 7.23922766e+00	 1.03417538e+01	-4.40000000e-01	1.000	 35	 0	
 318	 8.27340304e+00	 1.03417538e+01	-4.40000000e-01	1.000	 35	 0	
 319	 9.30757842e+00	 1.03417538e+01	-4.40000000e-01	1.000	 35	 0	
 320	 1.03417538e+01	 1.03417538e+01	-4.40000000e-01	1.000	 35	 0	
 321	 1.13759292e+01	 1.03417538e+01	-4.40000000e-01	1.000	 35	 0	
 322	 1.24101046e+01	 1.03417538e+01	-4.40000000e-01	1.000	 35	 0	
 323	 1.34442799e+01	 1.03417538e+01	-4.40000000e-01	1.000	 35	 0	
 324	 1.44784553e+01	 1.03417538e+01	-4.40000000e-01	1.000	 35	 0	
 325	 1.55126307e+01	 1.03417538e+01	-4.40000000e-01	1.000	 35	 0	
 326	 1.65468061e+01	 1.03417538e+01	-4.40000000e-01	1.000	 35	 0	
 327	 1.75809815e+01	 1.03417538e+01	-4.40000000e-01	1.000	 35	 0	
 328	 1.86151568e+01	 1.03417538e+01	-4.40000000e-01	1.000	 35	 0	
 329	 1.96493322e+01	 1.03417538e+01	-4.40000000e-01	1.000	 35	 0	
 330	 2.06835076e+01	 1.03417538e+01	-4.40000000e-01	1.000	 35	 0	
 331	 2.17176830e+01	 1.03417538e+01	-4.40000000e-01	1.000	 35	 0	
 332	 2.27518584e+01	 1.03417538e+01	-4.40000000e-01	1.000	 35	 0	
 333	 2.37860337e+01	 1.03417538e+01	-4.40000000e-01	1.000	 35	 0	
 334	 2.48202091e+01	 1.03417538e+01	-4.40000000e-01	1.000	 35	 0	
 335	 2.58543845e+01	 1.03417538e+01	-4.40000000e-01	1.000	 35	 0	
 336	 2.68885599e+01	 1.03417538e+01	-4.40000000e-01	1.000	 35	 0	
 337	 2.79227353e+01	 1.03417538e+01	-4.40000000e-01	1.000	 35	 0	
 338	 2.89569106e+01	 1.03417538e+01	-4.40000000e-01	1.000	 35	 0	
 339	 2.99910860e+01	 1.03417538e+01	-4.40000000e-01	1.000	 35	 0	
 340	 3.10252614e+01	 1.03417538e+01	-4.40000000e-01	1.000	 35	 0	
 341	 0.00000000e+00	 1.13759292e+01	-4.40000000e-01	1.000	 35	 0	
 342	 1.03417538e+00	 1.13759292e+01	-4.40000000e-01	1.000	 35	 0	
 343	 2.06835076e+00	 1.13759292e+01	-4.40000000e-01	1.000	 35	 0	
 344	 3.10252614e+00	 1.13759292e+01	-4.40000000e-01	1.000	 35	 0	
 345	 4.13670152e+00	 1.13759292e+01	-4.40000000e-01	1.000	 35	 0	
 346	 5.17087690e+00	 1.13759292e+01	-4.40000000e-01	1.000	 35	 0	
 347	 6.20505228e+00	 1.13759292e+01	-4.40000000e-01	1.000	 35	 0	
 348	 7.23922766e+00	 1.13759292e+01	-4.40000000e-01	1.000	 35	 0	
 349	 8.27340304e+00	 1.13759292e+01	-4.40000000e-01	1.000	 35	 0	
 350	 9.30757842e+00	 1.13759292e+01	-4.40000000e-01	1.000	 35	 0	
 351	 1.03417538e+01	 1.13759292e+01	-4.40000000e-01	1.000	 35	 0	
 352	 1.13759292e+01	 1.13759292e+01	-4.40000000e-01	1.000	 35	 0	
 353	 1.24101046e+01	 1.13759292e+01	-4.40000000e-01	1.000	 35	 0	
 354	 1.34442799e+01	 1.13759292e+01	-4.40000000e-01	1.000	 35	 0	
 355	 1.44784553e+01	 1.13759292e+01	-4.40000000e-01	1.000	 35	 0	
 356	 1.55126307e+01	 1.13759292e+01	-4.40000000e-01	1.000	 35	 0	
 357	 1.65468061e+01	 1.13759292e+01	-4.40000000e-01	1.000	 35	 0	
 358	 1.75809815e+01	 1.13759292e+01	-4.40000000e-01	1.000	 35	 0	
 359	 1.86151568e+01	 1.13759292e+01	-4.40000000e-01	1.000	 35	 0	
 360	 1.96493322e+01	 1.13759292e+01	-4.40000000e-01	1.000	 35	 0	
 361	 2.06835076e+01	 1.13759292e+01	-4.40000000e-01	1.000	 35	 0	
 362	 2.17176830e+01	 1.13759292e+01	-4.40000000e-01	1.000	 35	 0	
 363	 2.27518584e+01	 1.13759292e+01	-4.40000000e-01	1.000	 35	 0	
 364	 2.37860337e+01	 1.13759292e+01	-4.40000000e-01	1.000	 35	 0	
 365	 2.48202091e+01	 1.13759292e+01	-4.40000000e-01	1.000	 35	 0	
 366	 2.58543845e+01	 1.13759292e+01	-4.40000000e-01	1.000	 35	 0	
 367	 2.68885599e+01	 1.13759292e+01	-4.40000000e-01	1.000	 35	 0	
 368	 2.79227353e+01	 1.13759292e+01	-4.40000000e-01	1.000	 35	 0	
 369	 2.89569106e+01	 1.13759292e+01	-4.40000000e-01	1.000	 35	 0	
 370	 2.99910860e+01	 1.13759292e+01	-4.40000000e-01	1.000	 35	 0	
 371	 3.10252614e+01	 1.13759292e+01	-4.40000000e-01	1.000	 35	 0	
 372	 0.00000000e+00	 1.24101046e+01	-4.40000000e-01	1.000	 35	 0	
 373	 1.03417538e+00	 1.24101046e+01	-4.40000000e-01	1.000	 35	 0	
 374	 2.06835076e+00	 1.24101046e+01	-4.40000000e-01	1.000	 35	 0	
 375	 3.10252614e+00	 1.24101046e+01	-4.40000000e-01	1.000	 35	 0	
 376	 4.13670152e+00	 1.24101046e+01	-4.40000000e-01	1.000	 35	 0	
 377	 5.17087690e+00	 1.24101046e+01	-4.40000000e-01	1.000	 35	 0	
 378	 6.20505228e+00	 1.24101046e+01	-4.40000000e-01	1.000	 35	 0	
 379	 7.23922766e+00	 1.24101046e+01	-4.40000000e-01	1.000	 35	 0	
 380	 8.27340304e+00	 1.24101046e+01	-4.40000000e-01	1.000	 35	 0	
 381	 9.30757842e+00	 1.24101046e+01	-4.40000000e-01	1.000	 35	 0	
 382	 1.03417538e+01	 1.24101046e+01	-4.40000000e-01	1.000	 35	 0	
 383	 1.13759292e+01	 1.24101046e+01	-4.40000000e-01	1.000	 35	 0	
 384	 1.24101046e+01	 1.24101046e+01	-4.40000000e-01	1.000	 35	 0	
 385	 1.34442799e+01	 1.24101046e+01	-4.40000000e-01	1.000	 35	 0	
 386	 1.44784553e+01	 1.24101046e+01	-4.40000000e-01	1.000	 35	 0	
 387	 1.55126307e+01	 1.24101046e+01	-4.40000000e-01	1.000	 35	 0	
 388	 1.65468061e+01	 1.24101046e+01	-4.40000000e-01	1.000	 35	 0	
 389	 1.75809815e+01	 1.24101046e+01	-4.40000000e-01	1.000	 35	 0	
 390	 1.86151568e+01	 1.24101046e+01	-4.40000000e-01	1.000	 35	 0	
 391	 1.96493322e+01	 1.24101046e+01	-4.40000000e-01	1.000	 35	 0	
 392	 2.06835076e+01	 1.24101046e+01	-4.40000000e-01	1.000	 35	 0	
 393	 2.17176830e+01	 1.24101046e+01	-4.40000000e-01	1.000	 35	 0	
 394	 2.27518584e+01	 1.24101046e+01	-4.40000000e-01	1.000	 35	 0	
 395	 2.37860337e+01	 1.24101046e+01	-4.40000000e-01	1.000	 35	 0	
 396	 2.48202091e+01	 1.24101046e+01	-4.40000000e-01	1.000	 35	 0	
 397	 2.58543845e+01	 1.24101046e+01	-4.40000000e-01	1.000	 35	 0	
 398	 2.68885599e+01	 1.24101046e+01	-4.40000000e-01	1.000	 35	 0	
 399	 2.79227353e+01	 1.24101046e+01	-4.40000000e-01	1.000	 35	 0	
 400	 2.89569106e+01	 1.24101046e+01	-4.40000000e-01	1.000	 35	 0	
 401	 2.99910860e+01	 1.24101046e+01	-4.40000000e-01	1.000	 35	 0	
 402	 3.10252614e+01	 1.24101046e+01	-4.40000000e-01	1.000	 35	 0	
 403	 0.00000000e+00	 1.34442799e+01	-4.40000000e-01	1.000	 35	 0	
 404	 1.03417538e+00	 1.34442799e+01	-4.40000000e-01	1.000	 35	 0	
 405	 2.06835076e+00	 1.34442799e+01	-4.40000000e-01	1.000	 35	 0	
 406	 3.10252614e+00	 1.34442799e+01	-4.40000000e-01	1.000	 35	 0	
 407	 4.13670152e+00	 1.34442799e+01	-4.40000000e-01	1.000	 35	 0	
 408	 5.17087690e+00	 1.34442799e+01	-4.40000000e-01	1.000	 35	 0	
 409	 6.20505228e+00	 1.34442799e+01	-4.40000000e-01	1.000	 35	 0	
 410	 7.23922766e+00	 1.34442799e+01	-4.40000000e-01	1.000	 35	 0	
 411	 8.27340304e+00	 1.34442799e+01	-4.40000000e-01	1.000	 35	 0	
 412	 9.30757842e+00	 1.34442799e+01	-4.40000000e-01	1.000	 35	 0	
 413	 1.03417538e+01	 1.34442799e+01	-4.40000000e-01	1.000	 35	 0	
 414	 1.13759292e+01	 1.34442799e+01	-4.40000000e-01	1.000	 35	 0	
 415	 1.24101046e+01	 1.34442799e+01	-4.40000000e-01	1.000	 35	 0	
 416	 1.34442799e+01	 1.34442799e+01	-4.40000000e-01	1.000	 35	 0	
 417	 1.44784553e+01	 1.34442799e+01	-4.40000000e-01	1.000	 35	 0	
 418	 1.55126307e+01	 1.34442799e+01	-4.40000000e-01	1.000	 35	 0	
 419	 1.65468061e+01	 1.34442799e+01	-4.40000000e-01	1.000	 35	 0	
 420	 1.75809815e+01	 1.34442799e+01	-4.40000000e-01	1.000	 35	 0	
 421	 1.86151568e+01	 1.34442799e+01	-4.40000000e-01	1.000	 35	 0	
 422	 1.96493322e+01	 1.34442799e+01	-4.40000000e-01	1.000	 35	 0	
 423	 2.06835076e+01	 1.34442799e+01	-4.40000000e-01	1.000	 35	 0	
 424	 2.17176830e+01	 1.34442799e+01	-4.40000000e-01	1.000	 35	 0	
 425	 2.27518584e+01	 1.34442799e+01	-4.40000000e-01	1.000	 35	 0	
 426	 2.37860337e+01	 1.34442799e+01	-4.40000000e-01	1.000	 35	 0	
 427	 2.48202091e+01	 1.34442799e+01	-4.40000000e-01	1.000	 35	 0	
 428	 2.58543845e+01	 1.34442799e+01	-4.40000000e-01	1.000	 35	 0	
 429	 2.68885599e+01	 1.34442799e+01	-4.40000000e-01	1.000	 35	 0	
 430	 2.79227353e+01	 1.34442799e+01	-4.40000000e-01	1.000	 35	 0	
 431	 2.89569106e+01	 1.34442799e+01	-4.40000000e-01	1.000	 35	 0	
 432	 2.99910860e+01	 1.34442799e+01	-4.40000000e-01	1.000	 35	 0	
 433	 3.10252614e+01	 1.34442799e+01	-4.40000000e-01	1.000	 35	 0	
 434	 0.00000000e+00	 1.44784553e+01	-4.40000000e-01	1.000	 35	 0	
 435	 1.03417538e+00	 1.44784553e+01	-4.40000000e-01	1.000	 35	 0	
 436	 2.06835076e+00	 1.44784553e+01	-4.40000000e-01	1.000	 35	 0	
 437	 3.10252614e+00	 1.44784553e+01	-4.40000000e-01	1.000	 35	 0	
 438	 4.13670152e+00	 1.44784553e+01	-4.40000000e-01	1.000	 35	 0	
 439	 5.17087690e+00	 1.44784553e+01	-4.40000000e-01	1.000	 35	 0	
 440	 6.20505228e+00	 1.44784553e+01	-4.40000000e-01	1.000	 35	 0	
 441	 7.23922766e+00	 1.44784553e+01	-4.40000000e-01	1.000	 35	 0	
 442	 8.27340304e+00	 1.44784553e+01	-4.40000000e-01	1.000	 35	 0	
 443	 9.30757842e+00	 1.44784553e+01	-4.40000000e-01	1.000	 35	 0	