ITEM: TIMESTEP
0
ITEM: BOX BOUNDS pp pp ff
-3.25765245e+01	 3.25765245e+01	
-3.25765245e+01	 3.25765245e+01	
-1.10000000e+00	 1.10000000e+00	
ITEM: NUMBER OF ATOMS
7938
ITEM: ATOMS index x y z diameter charge species
   0	 0.00000000e+00	 0.00000000e+00	-4.40000000e-01	1.000	 35	 0	
   1	 1.03417538e+00	 0.00000000e+00	-4.40000000e-01	1.000	 35	 0	
   2	 2.06835076e+00	 0.00000000e+00	-4.40000000e-01	1.000	 35	 0	
   3	 3.10252614e+00	 0.00000000e+00	-4.40000000e-01	1.000	 35	 0	
   4	 4.13670152e+00	 0.00000000e+00	-4.40000000e-01	1.000	 35	 0	
   5	 5.17087690e+00	 0.00000000e+00	-4.40000000e-01	1.000	 35	 0	
   6	 6.20505228e+00	 0.00000000e+00	-4.40000000e-01	1.000	 35	 0	
   7	 7.23922766e+00	 0.00000000e+00	-4.40000000e-01	1.000	 35	 0	
   8	 8.27340304e+00	 0.00000000e+00	-4.40000000e-01	1.000	 35	 0	
   9	 9.30757842e+00	 0.00000000e+00	-4.40000000e-01	1.000	 35	 0	
  10	 1.03417538e+01	 0.00000000e+00	-4.40000000e-01	1.000	 35	 0	
  11	 1.13759292e+01	 0.00000000e+00	-4.40000000e-01	1.000	 35	 0	
  12	 1.24101046e+01	 0.00000000e+00	-4.40000000e-01	1.000	 35	 0	
  13	 1.34442799e+01	 0.00000000e+00	-4.40000000e-01	1.000	 35	 0	
  14	 1.44784553e+01	 0.00000000e+00	-4.40000000e-01	1.000	 35	 0	
  15	 1.55126307e+01	 0.00000000e+00	-4.40000000e-01	1.000	 35	 0	
  16	 1.65468061e+01	 0.00000000e+00	-4.40000000e-01	1.000	 35	 0	
  17	 1.75809815e+01	 0.00000000e+00	-4.40000000e-01	1.000	 35	 0	
  18	 1.86151568e+01	 0.00000000e+00	-4.40000000e-01	1.000	 35	 0	
  19	 1.96493322e+01	 0.00000000e+00	-4.40000000e-01	1.000	 35	 0	
  20	 2.06835076e+01	 0.00000000e+00	-4.40000000e-01	1.000	 35	 0	
  21	 2.17176830e+01	 0.00000000e+00	-4.40000000e-01	1.000	 35	 0	
  22	 2.27518584e+01	 0.00000000e+00	-4.40000000e-01	1.000	 35	 0	
  23	 2.37860337e+01	 0.00000000e+00	-4.40000000e-01	1.000	 35	 0	
  24	 2.48202091e+01	 0.00000000e+00	-4.40000000e-01	1.000	 35	 0	
  25	 2.58543845e+01	 0.00000000e+00	-4.40000000e-01	1.000	 35	 0	
  26	 2.68885599e+01	 0.00000000e+00	-4.40000000e-01	1.000	 35	 0	
  27	 2.79227353e+01	 0.00000000e+00	-4.40000000e-01	1.000	 35	 0	
  28	 2.89569106e+01	 0.00000000e+00	-4.40000000e-01	1.000	 35	 0	
  29	 2.99910860e+01	 0.00000000e+00	-4.40000000e-01	1.000	 35	 0	
  30	 3.10252614e+01	 0.00000000e+00	-4.40000000e-01	1.000	 35	 0	
  31	 3.20594368e+01	 0.00000000e+00	-4.40000000e-01	1.000	 35	 0	
  32	 3.30936122e+01	 0.00000000e+00	-4.40000000e-01	1.000	 35	 0	
  33	 3.41277875e+01	 0.00000000e+00	-4.40000000e-01	1.000	 35	 0	
  34	 3.51619629e+01	 0.00000000e+00	-4.40000000e-01	1.000	 35	 0	
  35	 3.61961383e+01	 0.00000000e+00	-4.40000000e-01	1.000	 35	 0	
  36	 3.72303137e+01	 0.00000000e+00	-4.40000000e-01	1.000	 35	 0	
  37	 3.82644891e+01	 0.00000000e+00	-4.40000000e-01	1.000	 35	 0	
  38	 3.92986644e+01	 0.00000000e+00	-4.40000000e-01	1.000	 35	 0	
  39	 4.03328398e+01	 0.00000000e+00	-4.40000000e-01	1.000	 35	 0	
  40	 4.13670152e+01	 0.00000000e+00	-4.40000000e-01	1.000	 35	 0	
  41	 4.24011906e+01	 0.00000000e+00	-4.40000000e-01	1.000	 35	 0	
  42	 4.34353660e+01	 0.00000000e+00	-4.40000000e-01	1.000	 35	 0	
  43	 4.44695413e+01	 0.00000000e+00	-4.40000000e-01	1.000	 35	 0	
  44	 4.55037167e+01	 0.00000000e+00	-4.40000000e-01	1.000	 35	 0	
  45	 4.65378921e+01	 0.00000000e+00	-4.40000000e-01	1.000	 35	 0	
  46	 4.75720675e+01	 0.00000000e+00	-4.40000000e-01	1.000	 35	 0	
  47	 4.86062429e+01	 0.00000000e+00	-4.40000000e-01	1.000	 35	 0	
  48	 4.96404182e+01	 0.00000000e+00	-4.40000000e-01	1.000	 35	 0	
  49	 5.06745936e+01	 0.00000000e+00	-4.40000000e-01	1.000	 35	 0	
  50	 5.17087690e+01	 0.00000000e+00	-4.40000000e-01	1.000	 35	 0	
  51	 5.27429444e+01	 0.00000000e+00	-4.40000000e-01	1.000	 35	 0	
  52	 5.37771198e+01	 0.00000000e+00	-4.40000000e-01	1.000	 35	 0	
  53	 5.48112951e+01	 0.00000000e+00	-4.40000000e-01	1.000	 35	 0	
  54	 5.58454705e+01	 0.00000000e+00	-4.40000000e-01	1.000	 35	 0	
  55	 5.68796459e+01	 0.00000000e+00	-4.40000000e-01	1.000	 35	 0	
  56	 5.79138213e+01	 0.00000000e+00	-4.40000000e-01	1.000	 35	 0	
  57	 5.89479967e+01	 0.00000000e+00	-4.40000000e-01	1.000	 35	 0	
  58	 5.99821720e+01	 0.00000000e+00	-4.40000000e-01	1.000	 35	 0	
  59	 6.10163474e+01	 0.00000000e+00	-4.40000000e-01	1.000	 35	 0	
  60	 6.20505228e+01	 0.00000000e+00	-4.40000000e-01	1.000	 35	 0	
  61	 6.30846982e+01	 0.00000000e+00	-4.40000000e-01	1.000	 35	 0	
  62	 6.41188736e+01	 0.00000000e+00	-4.40000000e-01	1.000	 35	 0	
  63	 0.00000000e+00	 1.03417538e+00	-4.40000000e-01	1.000	 35	 0	
  64	 1.03417538e+00	 1.03417538e+00	-4.40000000e-01	1.000	 35	 0	
  65	 2.06835076e+00	 1.03417538e+00	-4.40000000e-01	1.000	 35	 0	
  66	 3.10252614e+00	 1.03417538e+00	-4.40000000e-01	1.000	 35	 0	
  67	 4.13670152e+00	 1.03417538e+00	-4.40000000e-01	1.000	 35	 0	
  68	 5.17087690e+00	 1.03417538e+00	-4.40000000e-01	1.000	 35	 0	
  69	 6.20505228e+00	 1.03417538e+00	-4.40000000e-01	1.000	 35	 0	
  70	 7.23922766e+00	 1.03417538e+00	-4.40000000e-01	1.000	 35	 0	
  71	 8.27340304e+00	 1.03417538e+00	-4.40000000e-01	1.000	 35	 0	
  72	 9.30757842e+00	 1.03417538e+00	-4.40000000e-01	1.000	 35	 0	
  73	 1.03417538e+01	 1.03417538e+00	-4.40000000e-01	1.000	 35	 0	
  74	 1.13759292e+01	 1.03417538e+00	-4.40000000e-01	1.000	 35	 0	
  75	 1.24101046e+01	 1.03417538e+00	-4.40000000e-01	1.000	 35	 0	
  76	 1.34442799e+01	 1.03417538e+00	-4.40000000e-01	1.000	 35	 0	
  77	 1.44784553e+01	 1.03417538e+00	-4.40000000e-01	1.000	 35	 0	
  78	 1.55126307e+01	 1.03417538e+00	-4.40000000e-01	1.000	 35	 0	
  79	 1.65468061e+01	 1.03417538e+00	-4.40000000e-01	1.000	 35	 0	
  80	 1.75809815e+01	 1.03417538e+00	-4.40000000e-01	1.000	 35	 0	
  81	 1.86151568e+01	 1.03417538e+00	-4.40000000e-01	1.000	 35	 0	
  82	 1.96493322e+01	 1.03417538e+00	-4.40000000e-01	1.000	 35	 0	
  83	 2.06835076e+01	 1.03417538e+00	-4.40000000e-01	1.000	 35	 0	
  84	 2.17176830e+01	 1.03417538e+00	-4.40000000e-01	1.000	 35	 0	
  85	 2.27518584e+01	 1.03417538e+00	-4.40000000e-01	1.000	 35	 0	
  86	 2.37860337e+01	 1.03417538e+00	-4.40000000e-01	1.000	 35	 0	
  87	 2.48202091e+01	 1.03417538e+00	-4.40000000e-01	1.000	 35	 0	
  88	 2.58543845e+01	 1.03417538e+00	-4.40000000e-01	1.000	 35	 0	
  89	 2.68885599e+01	 1.03417538e+00	-4.40000000e-01	1.000	 35	 0	
  90	 2.79227353e+01	 1.03417538e+00	-4.40000000e-01	1.000	 35	 0	
  91	 2.89569106e+01	 1.03417538e+00	-4.40000000e-01	1.000	 35	 0	
  92	 2.99910860e+01	 1.03417538e+00	-4.40000000e-01	1.000	 35	 0	
  93	 3.10252614e+01	 1.03417538e+00	-4.40000000e-01	1.000	 35	 0	
  94	 3.20594368e+01	 1.03417538e+00	-4.40000000e-01	1.000	 35	 0	
  95	 3.30936122e+01	 1.03417538e+00	-4.40000000e-01	1.000	 35	 0	
  96	 3.41277875e+01	 1.03417538e+00	-4.40000000e-01	1.000	 35	 0	
  97	 3.51619629e+01	 1.03417538e+00	-4.40000000e-01	1.000	 35	 0	
  98	 3.61961383e+01	 1.03417538e+00	-4.40000000e-01	1.000	 35	 0	
  99	 3.72303137e+01	 1.03417538e+00	-4.40000000e-01	1.000	 35	 0	
 100	 3.82644891e+01	 1.03417538e+00	-4.40000000e-01	1.000	 35	 0	
 101	 3.92986644e+01	 1.03417538e+00	-4.40000000e-01	1.000	 35	 0	
 102	 4.03328398e+01	 1.03417538e+00	-4.40000000e-01	1.000	 35	 0	
 103	 4.13670152e+01	 1.03417538e+00	-4.40000000e-01	1.000	 35	 0	
 104	 4.24011906e+01	 1.03417538e+00	-4.40000000e-01	1.000	 35	 0	
 105	 4.34353660e+01	 1.03417538e+00	-4.40000000e-01	1.000	 35	 0	
 106	 4.44695413e+01	 1.03417538e+00	-4.40000000e-01	1.000	 35	 0	
 107	 4.55037167e+01	 1.03417538e+00	-4.40000000e-01	1.000	 35	 0	
 108	 4.65378921e+01	 1.03417538e+00	-4.40000000e-01	1.000	 35	 0	
 109	 4.75720675e+01	 1.03417538e+00	-4.40000000e-01	1.000	 35	 0	
 110	 4.86062429e+01	 1.03417538e+00	-4.40000000e-01	1.000	 35	 0	
 111	 4.96404182e+01	 1.03417538e+00	-4.40000000e-01	1.000	 35	 0	
 112	 5.06745936e+01	 1.03417538e+00	-4.40000000e-01	1.000	 35	 0	
 113	 5.17087690e+01	 1.03417538e+00	-4.40000000e-01	1.000	 35	 0	
 114	 5.27429444e+01	 1.03417538e+00	-4.40000000e-01	1.000	 35	 0	
 115	 5.37771198e+01	 1.03417538e+00	-4.40000000e-01	1.000	 35	 0	
 116	 5.48112951e+01	 1.03417538e+00	-4.40000000e-01	1.000	 35	 0	
 117	 5.58454705e+01	 1.03417538e+00	-4.40000000e-01	1.000	 35	 0	
 118	 5.68796459e+01	 1.03417538e+00	-4.40000000e-01	1.000	 35	 0	
 119	 5.79138213e+01	 1.03417538e+00	-4.40000000e-01	1.000	 35	 0	
 120	 5.89479967e+01	 1.03417538e+00	-4.40000000e-01	1.000	 35	 0	
 121	 5.99821720e+01	 1.03417538e+00	-4.40000000e-01	1.000	 35	 0	
 122	 6.10163474e+01	 1.03417538e+00	-4.40000000e-01	1.000	 35	 0	
 123	 6.20505228e+01	 1.03417538e+00	-4.40000000e-01	1.000	 35	 0	
 124	 6.30846982e+01	 1.03417538e+00	-4.40000000e-01	1.000	 35	 0	
 125	 6.41188736e+01	 1.03417538e+00	-4.40000000e-01	1.000	 35	 0	
 126	 0.00000000e+00	 2.06835076e+00	-4.40000000e-01	1.000	 35	 0	
 127	 1.03417538e+00	 2.06835076e+00	-4.40000000e-01	1.000	 35	 0	
 128	 2.06835076e+00	 2.06835076e+00	-4.40000000e-01	1.000	 35	 0	
 129	 3.10252614e+00	 2.06835076e+00	-4.40000000e-01	1.000	 35	 0	
 130	 4.13670152e+00	 2.06835076e+00	-4.40000000e-01	1.000	 35	 0	
 131	 5.17087690e+00	 2.06835076e+00	-4.40000000e-01	1.000	 35	 0	
 132	 6.20505228e+00	 2.06835076e+00	-4.40000000e-01	1.000	 35	 0	
 133	 7.23922766e+00	 2.06835076e+00	-4.40000000e-01	1.000	 35	 0	
 134	 8.27340304e+00	 2.06835076e+00	-4.40000000e-01	1.000	 35	 0	
 135	 9.30757842e+00	 2.06835076e+00	-4.40000000e-01	1.000	 35	 0	
 136	 1.03417538e+01	 2.06835076e+00	-4.40000000e-01	1.000	 35	 0	
 137	 1.13759292e+01	 2.06835076e+00	-4.40000000e-01	1.000	 35	 0	
 138	 1.24101046e+01	 2.06835076e+00	-4.40000000e-01	1.000	 35	 0	
 139	 1.34442799e+01	 2.06835076e+00	-4.40000000e-01	1.000	 35	 0	
 140	 1.44784553e+01	 2.06835076e+00	-4.40000000e-01	1.000	 35	 0	
 141	 1.55126307e+01	 2.06835076e+00	-4.40000000e-01	1.000	 35	 0	
 142	 1.65468061e+01	 2.06835076e+00	-4.40000000e-01	1.000	 35	 0	
 143	 1.75809815e+01	 2.06835076e+00	-4.40000000e-01	1.000	 35	 0	
 144	 1.86151568e+01	 2.06835076e+00	-4.40000000e-01	1.000	 35	 0	
 145	 1.96493322e+01	 2.06835076e+00	-4.40000000e-01	1.000	 35	 0	
 146	 2.06835076e+01	 2.06835076e+00	-4.40000000e-01	1.000	 35	 0	
 147	 2.17176830e+01	 2.06835076e+00	-4.40000000e-01	1.000	 35	 0	
 148	 2.27518584e+01	 2.06835076e+00	-4.40000000e-01	1.000	 35	 0	
 149	 2.37860337e+01	 2.06835076e+00	-4.40000000e-01	1.000	 35	 0	
 150	 2.48202091e+01	 2.06835076e+00	-4.40000000e-01	1.000	 35	 0	
 151	 2.58543845e+01	 2.06835076e+00	-4.40000000e-01	1.000	 35	 0	
 152	 2.68885599e+01	 2.06835076e+00	-4.40000000e-01	1.000	 35	 0	
 153	 2.79227353e+01	 2.06835076e+00	-4.40000000e-01	1.000	 35	 0	
 154	 2.89569106e+01	 2.06835076e+00	-4.40000000e-01	1.000	 35	 0	
 155	 2.99910860e+01	 2.06835076e+00	-4.40000000e-01	1.000	 35	 0	
 156	 3.10252614e+01	 2.06835076e+00	-4.40000000e-01	1.000	 35	 0	
 157	 3.20594368e+01	 2.06835076e+00	-4.40000000e-01	1.000	 35	 0	
 158	 3.30936122e+01	 2.06835076e+00	-4.40000000e-01	1.000	 35	 0	
 159	 3.41277875e+01	 2.06835076e+00	-4.40000000e-01	1.000	 35	 0	
 160	 3.51619629e+01	 2.06835076e+00	-4.40000000e-01	1.000	 35	 0	
 161	 3.61961383e+01	 2.06835076e+00	-4.40000000e-01	1.000	 35	 0	
 162	 3.72303137e+01	 2.06835076e+00	-4.40000000e-01	1.000	 35	 0	
 163	 3.82644891e+01	 2.06835076e+00	-4.40000000e-01	1.000	 35	 0	
 164	 3.92986644e+01	 2.06835076e+00	-4.40000000e-01	1.000	 35	 0	
 165	 4.03328398e+01	 2.06835076e+00	-4.40000000e-01	1.000	 35	 0	
 166	 4.13670152e+01	 2.06835076e+00	-4.40000000e-01	1.000	 35	 0	
 167	 4.24011906e+01	 2.06835076e+00	-4.40000000e-01	1.000	 35	 0	
 168	 4.34353660e+01	 2.06835076e+00	-4.40000000e-01	1.000	 35	 0	
 169	 4.44695413e+01	 2.06835076e+00	-4.40000000e-01	1.000	 35	 0	
 170	 4.55037167e+01	 2.06835076e+00	-4.40000000e-01	1.000	 35	 0	
 171	 4.65378921e+01	 2.06835076e+00	-4.40000000e-01	1.000	 35	 0	
 172	 4.75720675e+01	 2.06835076e+00	-4.40000000e-01	1.000	 35	 0	
 173	 4.86062429e+01	 2.06835076e+00	-4.40000000e-01	1.000	 35	 0	
 174	 4.96404182e+01	 2.06835076e+00	-4.40000000e-01	1.000	 35	 0	
 175	 5.06745936e+01	 2.06835076e+00	-4.40000000e-01	1.000	 35	 0	
 176	 5.17087690e+01	 2.06835076e+00	-4.40000000e-01	1.000	 35	 0	
 177	 5.27429444e+01	 2.06835076e+00	-4.40000000e-01	1.000	 35	 0	
 178	 5.37771198e+01	 2.06835076e+00	-4.40000000e-01	1.000	 35	 0	
 179	 5.48112951e+01	 2.06835076e+00	-4.40000000e-01	1.000	 35	 0	
 180	 5.58454705e+01	 2.06835076e+00	-4.40000000e-01	1.000	 35	 0	
 181	 5.68796459e+01	 2.06835076e+00	-4.40000000e-01	1.000	 35	 0	
 182	 5.79138213e+01	 2.06835076e+00	-4.40000000e-01	1.000	 35	 0	
 183	 5.89479967e+01	 2.06835076e+00	-4.40000000e-01	1.000	 35	 0	
 184	 5.99821720e+01	 2.06835076e+00	-4.40000000e-01	1.000	 35	 0	
 185	 6.10163474e+01	 2.06835076e+00	-4.40000000e-01	1.000	 35	 0	
 186	 6.20505228e+01	 2.06835076e+00	-4.40000000e-01	1.000	 35	 0	
 187	 6.30846982e+01	 2.06835076e+00	-4.40000000e-01	1.000	 35	 0	
 188	 6.41188736e+01	 2.06835076e+00	-4.40000000e-01	1.000	 35	 0	
 189	 0.00000000e+00	 3.10252614e+00	-4.40000000e-01	1.000	 35	 0	
 190	 1.03417538e+00	 3.10252614e+00	-4.40000000e-01	1.000	 35	 0	
 191	 2.06835076e+00	 3.10252614e+00	-4.40000000e-01	1.000	 35	 0	
 192	 3.10252614e+00	 3.10252614e+00	-4.40000000e-01	1.000	 35	 0	
 193	 4.13670152e+00	 3.10252614e+00	-4.40000000e-01	1.000	 35	 0	
 194	 5.17087690e+00	 3.10252614e+00	-4.40000000e-01	1.000	 35	 0	
 195	 6.20505228e+00	 3.10252614e+00	-4.40000000e-01	1.000	 35	 0	
 196	 7.23922766e+00	 3.10252614e+00	-4.40000000e-01	1.000	 35	 0	
 197	 8.27340304e+00	 3.10252614e+00	-4.40000000e-01	1.000	 35	 0	
 198	 9.30757842e+00	 3.10252614e+00	-4.40000000e-01	1.000	 35	 0	
 199	 1.03417538e+01	 3.10252614e+00	-4.40000000e-01	1.000	 35	 0	
 200	 1.13759292e+01	 3.10252614e+00	-4.40000000e-01	1.000	 35	 0	
 201	 1.24101046e+01	 3.10252614e+00	-4.40000000e-01	1.000	 35	 0	
 202	 1.34442799e+01	 3.10252614e+00	-4.40000000e-01	1.000	 35	 0	
 203	 1.44784553e+01	 3.10252614e+00	-4.40000000e-01	1.000	 35	 0	
 204	 1.55126307e+01	 3.10252614e+00	-4.40000000e-01	1.000	 35	 0	
 205	 1.65468061e+01	 3.10252614e+00	-4.40000000e-01	1.000	 35	 0	
 206	 1.75809815e+01	 3.10252614e+00	-4.40000000e-01	1.000	 35	 0	
 207	 1.86151568e+01	 3.10252614e+00	-4.40000000e-01	1.000	 35	 0	
 208	 1.96493322e+01	 3.10252614e+00	-4.40000000e-01	1.000	 35	 0	
 209	 2.06835076e+01	 3.10252614e+00	-4.40000000e-01	1.000	 35	 0	
 210	 2.17176830e+01	 3.10252614e+00	-4.40000000e-01	1.000	 35	 0	
 211	 2.27518584e+01	 3.10252614e+00	-4.40000000e-01	1.000	 35	 0	
 212	 2.37860337e+01	 3.10252614e+00	-4.40000000e-01	1.000	 35	 0	
 213	 2.48202091e+01	 3.10252614e+00	-4.40000000e-01	1.000	 35	 0	
 214	 2.58543845e+01	 3.10252614e+00	-4.40000000e-01	1.000	 35	 0	
 215	 2.68885599e+01	 3.10252614e+00	-4.40000000e-01	1.000	 35	 0	
 216	 2.79227353e+01	 3.10252614e+00	-4.40000000e-01	1.000	 35	 0	
 217	 2.89569106e+01	 3.10252614e+00	-4.40000000e-01	1.000	 35	 0	
 218	 2.99910860e+01	 3.10252614e+00	-4.40000000e-01	1.000	 35	 0	
 219	 3.10252614e+01	 3.10252614e+00	-4.40000000e-01	1.000	 35	 0	
 220	 3.20594368e+01	 3.10252614e+00	-4.40000000e-01	1.000	 35	 0	
 221	 3.30936122e+01	 3.10252614e+00	-4.40000000e-01	1.000	 35	 0	
 222	 3.41277875e+01	 3.10252614e+00	-4.40000000e-01	1.000	 35	 0	
 223	 3.51619629e+01	 3.10252614e+00	-4.40000000e-01	1.000	 35	 0	
 224	 3.61961383e+01	 3.10252614e+00	-4.40000000e-01	1.000	 35	 0	
 225	 3.72303137e+01	 3.10252614e+00	-4.40000000e-01	1.000	 35	 0	
 226	 3.82644891e+01	 3.10252614e+00	-4.40000000e-01	1.000	 35	 0	
 227	 3.92986644e+01	 3.10252614e+00	-4.40000000e-01	1.000	 35	 0	
 228	 4.03328398e+01	 3.10252614e+00	-4.40000000e-01	1.000	 35	 0	
 229	 4.13670152e+01	 3.10252614e+00	-4.40000000e-01	1.000	 35	 0	
 230	 4.24011906e+01	 3.10252614e+00	-4.40000000e-01	1.000	 35	 0	
 231	 4.34353660e+01	 3.10252614e+00	-4.40000000e-01	1.000	 35	 0	
 232	 4.44695413e+01	 3.10252614e+00	-4.40000000e-01	1.000	 35	 0	
 233	 4.55037167e+01	 3.10252614e+00	-4.40000000e-01	1.000	 35	 0	
 234	 4.65378921e+01	 3.10252614e+00	-4.40000000e-01	1.000	 35	 0	
 235	 4.75720675e+01	 3.10252614e+00	-4.40000000e-01	1.000	 35	 0	
 236	 4.86062429e+01	 3.10252614e+00	-4.40000000e-01	1.000	 35	 0	
 237	 4.96404182e+01	 3.10252614e+00	-4.40000000e-01	1.000	 35	 0	
 238	 5.06745936e+01	 3.10252614e+00	-4.40000000e-01	1.000	 35	 0	
 239	 5.17087690e+01	 3.10252614e+00	-4.40000000e-01	1.000	 35	 0	
 240	 5.27429444e+01	 3.10252614e+00	-4.40000000e-01	1.000	 35	 0	
 241	 5.37771198e+01	 3.10252614e+00	-4.40000000e-01	1.000	 35	 0	
 242	 5.48112951e+01	 3.10252614e+00	-4.40000000e-01	1.000	 35	 0	
 243	 5.58454705e+01	 3.10252614e+00	-4.40000000e-01	1.000	 35	 0	
 244	 5.68796459e+01	 3.10252614e+00	-4.40000000e-01	1.000	 35	 0	
 245	 5.79138213e+01	 3.10252614e+00	-4.40000000e-01	1.000	 35	 0	
 246	 5.89479967e+01	 3.10252614e+00	-4.40000000e-01	1.000	 35	 0	
 247	 5.99821720e+01	 3.10252614e+00	-4.40000000e-01	1.000	 35	 0	
 248	 6.10163474e+01	 3.10252614e+00	-4.40000000e-01	1.000	 35	 0	
 249	 6.20505228e+01	 3.10252614e+00	-4.40000000e-01	1.000	 35	 0	
 250	 6.30846982e+01	 3.10252614e+00	-4.40000000e-01	1.000	 35	 0	
 251	 6.41188736e+01	 3.10252614e+00	-4.40000000e-01	1.000	 35	 0	
 252	 0.00000000e+00	 4.13670152e+00	-4.40000000e-01	1.000	 35	 0	
 253	 1.03417538e+00	 4.13670152e+00	-4.40000000e-01	1.000	 35	 0	
 254	 2.06835076e+00	 4.13670152e+00	-4.40000000e-01	1.000	 35	 0	
 255	 3.10252614e+00	 4.13670152e+00	-4.40000000e-01	1.000	 35	 0	
 256	 4.13670152e+00	 4.13670152e+00	-4.40000000e-01	1.000	 35	 0	
 257	 5.17087690e+00	 4.13670152e+00	-4.40000000e-01	1.000	 35	 0	
 258	 6.20505228e+00	 4.13670152e+00	-4.40000000e-01	1.000	 35	 0	
 259	 7.23922766e+00	 4.13670152e+00	-4.40000000e-01	1.000	 35	 0	
 260	 8.27340304e+00	 4.13670152e+00	-4.40000000e-01	1.000	 35	 0	
 261	 9.30757842e+00	 4.13670152e+00	-4.40000000e-01	1.000	 35	 0	
 262	 1.03417538e+01	 4.13670152e+00	-4.40000000e-01	1.000	 35	 0	
 263	 1.13759292e+01	 4.13670152e+00	-4.40000000e-01	1.000	 35	 0	
 264	 1.24101046e+01	 4.13670152e+00	-4.40000000e-01	1.000	 35	 0	
 265	 1.34442799e+01	 4.13670152e+00	-4.40000000e-01	1.000	 35	 0	
 266	 1.44784553e+01	 4.13670152e+00	-4.40000000e-01	1.000	 35	 0	
 267	 1.55126307e+01	 4.13670152e+00	-4.40000000e-01	1.000	 35	 0	
 268	 1.65468061e+01	 4.13670152e+00	-4.40000000e-01	1.000	 35	 0	
 269	 1.75809815e+01	 4.13670152e+00	-4.40000000e-01	1.000	 35	 0	
 270	 1.86151568e+01	 4.13670152e+00	-4.40000000e-01	1.000	 35	 0	
 271	 1.96493322e+01	 4.13670152e+00	-4.40000000e-01	1.000	 35	 0	
 272	 2.06835076e+01	 4.13670152e+00	-4.40000000e-01	1.000	 35	 0	
 273	 2.17176830e+01	 4.13670152e+00	-4.40000000e-01	1.000	 35	 0	
 274	 2.27518584e+01	 4.13670152e+00	-4.40000000e-01	1.000	 35	 0	
 275	 2.37860337e+01	 4.13670152e+00	-4.40000000e-01	1.000	 35	 0	
 276	 2.48202091e+01	 4.13670152e+00	-4.40000000e-01	1.000	 35	 0	
 277	 2.58543845e+01	 4.13670152e+00	-4.40000000e-01	1.000	 35	 0	
 278	 2.68885599e+01	 4.13670152e+00	-4.40000000e-01	1.000	 35	 0	
 279	 2.79227353e+01	 4.13670152e+00	-4.40000000e-01	1.000	 35	 0	
 280	 2.89569106e+01	 4.13670152e+00	-4.40000000e-01	1.000	 35	 0	
 281	 2.99910860e+01	 4.13670152e+00	-4.40000000e-01	1.000	 35	 0	
 282	 3.10252614e+01	 4.13670152e+00	-4.40000000e-01	1.000	 35	 0	
 283	 3.20594368e+01	 4.13670152e+00	-4.40000000e-01	1.000	 35	 0	
 284	 3.30936122e+01	 4.13670152e+00	-4.40000000e-01	1.000	 35	 0	
 285	 3.41277875e+01	 4.13670152e+00	-4.40000000e-01	1.000	 35	 0	
 286	 3.51619629e+01	 4.13670152e+00	-4.40000000e-01	1.000	 35	 0	
 287	 3.61961383e+01	 4.13670152e+00	-4.40000000e-01	1.000	 35	 0	
 288	 3.72303137e+01	 4.13670152e+00	-4.40000000e-01	1.000	 35	 0	
 289	 3.82644891e+01	 4.13670152e+00	-4.40000000e-01	1.000	 35	 0	
 290	 3.92986644e+01	 4.13670152e+00	-4.40000000e-01	1.000	 35	 0	
 291	 4.03328398e+01	 4.13670152e+00	-4.40000000e-01	1.000	 35	 0	
 292	 4.13670152e+01	 4.13670152e+00	-4.40000000e-01	1.000	 35	 0	
 293	 4.24011906e+01	 4.13670152e+00	-4.40000000e-01	1.000	 35	 0	
 294	 4.34353660e+01	 4.13670152e+00	-4.40000000e-01	1.000	 35	 0	
 295	 4.44695413e+01	 4.13670152e+00	-4.40000000e-01	1.000	 35	 0	
 296	 4.55037167e+01	 4.13670152e+00	-4.40000000e-01	1.000	 35	 0	
 297	 4.65378921e+01	 4.13670152e+00	-4.40000000e-01	1.000	 35	 0	
 298	 4.75720675e+01	 4.13670152e+00	-4.40000000e-01	1.000	 35	 0	
 299	 4.86062429e+01	 4.13670152e+00	-4.40000000e-01	1.000	 35	 0	
 300	 4.96404182e+01	 4.13670152e+00	-4.40000000e-01	1.000	 35	 0	
 301	 5.06745936e+01	 4.13670152e+00	-4.40000000e-01	1.000	 35	 0	
 302	 5.17087690e+01	 4.13670152e+00	-4.40000000e-01	1.000	 35	 0	
 303	 5.27429444e+01	 4.13670152e+00	-4.40000000e-01	1.000	 35	 0	
 304	 5.37771198e+01	 4.13670152e+00	-4.40000000e-01	1.000	 35	 0	
 305	 5.48112951e+01	 4.13670152e+00	-4.40000000e-01	1.000	 35	 0	
 306	 5.58454705e+01	 4.13670152e+00	-4.40000000e-01	1.000	 35	 0	
 307	 5.68796459e+01	 4.13670152e+00	-4.40000000e-01	1.000	 35	 0	
 308	 5.79138213e+01	 4.13670152e+00	-4.40000000e-01	1.000	 35	 0	
 309	 5.89479967e+01	 4.13670152e+00	-4.40000000e-01	1.000	 35	 0	
 310	 5.99821720e+01	 4.13670152e+00	-4.40000000e-01	1.000	 35	 0	
 311	 6.10163474e+01	 4.13670152e+00	-4.40000000e-01	1.000	 35	 0	
 312	 6.20505228e+01	 4.13670152e+00	-4.40000000e-01	1.000	 35	 0	
 313	 6.30846982e+01	 4.13670152e+00	-4.40000000e-01	1.000	 35	 0	
 314	 6.41188736e+01	 4.13670152e+00	-4.40000000e-01	1.000	 35	 0	
 315	 0.00000000e+00	 5.17087690e+00	-4.40000000e-01	1.000	 35	 0	
 316	 1.03417538e+00	 5.17087690e+00	-4.40000000e-01	1.000	 35	 0	
 317	 2.06835076e+00	 5.17087690e+00	-4.40000000e-01	1.000	 35	 0	
 318	 3.10252614e+00	 5.17087690e+00	-4.40000000e-01	1.000	 35	 0	
 319	 4.13670152e+00	 5.17087690e+00	-4.40000000e-01	1.000	 35	 0	
 320	 5.17087690e+00	 5.17087690e+00	-4.40000000e-01	1.000	 35	 0	
 321	 6.20505228e+00	 5.17087690e+00	-4.40000000e-01	1.000	 35	 0	
 322	 7.23922766e+00	 5.17087690e+00	-4.40000000e-01	1.000	 35	 0	
 323	 8.27340304e+00	 5.17087690e+00	-4.40000000e-01	1.000	 35	 0	
 324	 9.30757842e+00	 5.17087690e+00	-4.40000000e-01	1.000	 35	 0	
 325	 1.03417538e+01	 5.17087690e+00	-4.40000000e-01	1.000	 35	 0	
 326	 1.13759292e+01	 5.17087690e+00	-4.40000000e-01	1.000	 35	 0	
 327	 1.24101046e+01	 5.17087690e+00	-4.40000000e-01	1.000	 35	 0	
 328	 1.34442799e+01	 5.17087690e+00	-4.40000000e-01	1.000	 35	 0	
 329	 1.44784553e+01	 5.17087690e+00	-4.40000000e-01	1.000	 35	 0	
 330	 1.55126307e+01	 5.17087690e+00	-4.40000000e-01	1.000	 35	 0	
 331	 1.65468061e+01	 5.17087690e+00	-4.40000000e-01	1.000	 35	 0	
 332	 1.75809815e+01	 5.17087690e+00	-4.40000000e-01	1.000	 35	 0	
 333	 1.86151568e+01	 5.17087690e+00	-4.40000000e-01	1.000	 35	 0	
 334	 1.96493322e+01	 5.17087690e+00	-4.40000000e-01	1.000	 35	 0	
 335	 2.06835076e+01	 5.17087690e+00	-4.40000000e-01	1.000	 35	 0	
 336	 2.17176830e+01	 5.17087690e+00	-4.40000000e-01	1.000	 35	 0	
 337	 2.27518584e+01	 5.17087690e+00	-4.40000000e-01	1.000	 35	 0	
 338	 2.37860337e+01	 5.17087690e+00	-4.40000000e-01	1.000	 35	 0	
 339	 2.48202091e+01	 5.17087690e+00	-4.40000000e-01	1.000	 35	 0	
 340	 2.58543845e+01	 5.17087690e+00	-4.40000000e-01	1.000	 35	 0	
 341	 2.68885599e+01	 5.17087690e+00	-4.40000000e-01	1.000	 35	 0	
 342	 2.79227353e+01	 5.17087690e+00	-4.40000000e-01	1.000	 35	 0	
 343	 2.89569106e+01	 5.17087690e+00	-4.40000000e-01	1.000	 35	 0	
 344	 2.99910860e+01	 5.17087690e+00	-4.40000000e-01	1.000	 35	 0	
 345	 3.10252614e+01	 5.17087690e+00	-4.40000000e-01	1.000	 35	 0	
 346	 3.20594368e+01	 5.17087690e+00	-4.40000000e-01	1.000	 35	 0	
 347	 3.30936122e+01	 5.17087690e+00	-4.40000000e-01	1.000	 35	 0	
 348	 3.41277875e+01	 5.17087690e+00	-4.40000000e-01	1.000	 35	 0	
 349	 3.51619629e+01	 5.17087690e+00	-4.40000000e-01	1.000	 35	 0	
 350	 3.61961383e+01	 5.17087690e+00	-4.40000000e-01	1.000	 35	 0	
 351	 3.72303137e+01	 5.17087690e+00	-4.40000000e-01	1.000	 35	 0	
 352	 3.82644891e+01	 5.17087690e+00	-4.40000000e-01	1.000	 35	 0	
 353	 3.92986644e+01	 5.17087690e+00	-4.40000000e-01	1.000	 35	 0	
 354	 4.03328398e+01	 5.17087690e+00	-4.40000000e-01	1.000	 35	 0	
 355	 4.13670152e+01	 5.17087690e+00	-4.40000000e-01	1.000	 35	 0	
 356	 4.24011906e+01	 5.17087690e+00	-4.40000000e-01	1.000	 35	 0	
 357	 4.34353660e+01	 5.17087690e+00	-4.40000000e-01	1.000	 35	 0	
 358	 4.44695413e+01	 5.17087690e+00	-4.40000000e-01	1.000	 35	 0	
 359	 4.55037167e+01	 5.17087690e+00	-4.40000000e-01	1.000	 35	 0	
 360	 4.65378921e+01	 5.17087690e+00	-4.40000000e-01	1.000	 35	 0	
 361	 4.75720675e+01	 5.17087690e+00	-4.40000000e-01	1.000	 35	 0	
 362	 4.86062429e+01	 5.17087690e+00	-4.40000000e-01	1.000	 35	 0	
 363	 4.96404182e+01	 5.17087690e+00	-4.40000000e-01	1.000	 35	 0	
 364	 5.06745936e+01	 5.17087690e+00	-4.40000000e-01	1.000	 35	 0	
 365	 5.17087690e+01	 5.17087690e+00	-4.40000000e-01	1.000	 35	 0	
 366	 5.27429444e+01	 5.17087690e+00	-4.40000000e-01	1.000	 35	 0	
 367	 5.37771198e+01	 5.17087690e+00	-4.40000000e-01	1.000	 35	 0	
 368	 5.48112951e+01	 5.17087690e+00	-4.40000000e-01	1.000	 35	 0	
 369	 5.58454705e+01	 5.17087690e+00	-4.40000000e-01	1.000	 35	 0	
 370	 5.68796459e+01	 5.17087690e+00	-4.40000000e-01	1.000	 35	 0	
 371	 5.79138213e+01	 5.17087690e+00	-4.40000000e-01	1.000	 35	 0	
 372	 5.89479967e+01	 5.17087690e+00	-4.40000000e-01	1.000	 35	 0	
 373	 5.99821720e+01	 5.17087690e+00	-4.40000000e-01	1.000	 35	 0	
 374	 6.10163474e+01	 5.17087690e+00	-4.40000000e-01	1.000	 35	 0	
 375	 6.20505228e+01	 5.17087690e+00	-4.40000000e-01	1.000	 35	 0	
 376	 6.30846982e+01	 5.17087690e+00	-4.40000000e-01	1.000	 35	 0	
 377	 6.41188736e+01	 5.17087690e+00	-4.40000000e-01	1.000	 35	 0	
 378	 0.00000000e+00	 6.20505228e+00	-4.40000000e-01	1.000	 35	 0	
 379	 1.03417538e+00	 6.20505228e+00	-4.40000000e-01	1.000	 35	 0	
 380	 2.06835076e+00	 6.20505228e+00	-4.40000000e-01	1.000	 35	 0	
 381	 3.10252614e+00	 6.20505228e+00	-4.40000000e-01	1.000	 35	 0	
 382	 4.13670152e+00	 6.20505228e+00	-4.40000000e-01	1.000	 35	 0	
 383	 5.17087690e+00	 6.20505228e+00	-4.40000000e-01	1.000	 35	 0	
 384	 6.20505228e+00	 6.20505228e+00	-4.40000000e-01	1.000	 35	 0	
 385	 7.23922766e+00	 6.20505228e+00	-4.40000000e-01	1.000	 35	 0	
 386	 8.27340304e+00	 6.20505228e+00	-4.40000000e-01	1.000	 35	 0	
 387	 9.30757842e+00	 6.20505228e+00	-4.40000000e-01	1.000	 35	 0	
 388	 1.03417538e+01	 6.20505228e+00	-4.40000000e-01	1.000	 35	 0	
 389	 1.13759292e+01	 6.20505228e+00	-4.40000000e-01	1.000	 35	 0	
 390	 1.24101046e+01	 6.20505228e+00	-4.40000000e-01	1.000	 35	 0	
 391	 1.34442799e+01	 6.20505228e+00	-4.40000000e-01	1.000	 35	 0	
 392	 1.44784553e+01	 6.20505228e+00	-4.40000000e-01	1.000	 35	 0	
 393	 1.55126307e+01	 6.20505228e+00	-4.40000000e-01	1.000	 35	 0	
 394	 1.65468061e+01	 6.20505228e+00	-4.40000000e-01	1.000	 35	 0	
 395	 1.75809815e+01	 6.20505228e+00	-4.40000000e-01	1.000	 35	 0	
 396	 1.86151568e+01	 6.20505228e+00	-4.40000000e-01	1.000	 35	 0	
 397	 1.96493322e+01	 6.20505228e+00	-4.40000000e-01	1.000	 35	 0	
 398	 2.06835076e+01	 6.20505228e+00	-4.40000000e-01	1.000	 35	 0	
 399	 2.17176830e+01	 6.20505228e+00	-4.40000000e-01	1.000	 35	 0	
 400	 2.27518584e+01	 6.20505228e+00	-4.40000000e-01	1.000	 35	 0	
 401	 2.37860337e+01	 6.20505228e+00	-4.40000000e-01	1.000	 35	 0	
 402	 2.48202091e+01	 6.20505228e+00	-4.40000000e-01	1.000	 35	 0	
 403	 2.58543845e+01	 6.20505228e+00	-4.40000000e-01	1.000	 35	 0	
 404	 2.68885599e+01	 6.20505228e+00	-4.40000000e-01	1.000	 35	 0	
 405	 2.79227353e+01	 6.20505228e+00	-4.40000000e-01	1.000	 35	 0	
 406	 2.89569106e+01	 6.20505228e+00	-4.40000000e-01	1.000	 35	 0	
 407	 2.99910860e+01	 6.20505228e+00	-4.40000000e-01	1.000	 35	 0	
 408	 3.10252614e+01	 6.20505228e+00	-4.40000000e-01	1.000	 35	 0	
 409	 3.20594368e+01	 6.20505228e+00	-4.40000000e-01	1.000	 35	 0	
 410	 3.30936122e+01	 6.20505228e+00	-4.40000000e-01	1.000	 35	 0	
 411	 3.41277875e+01	 6.20505228e+00	-4.40000000e-01	1.000	 35	 0	
 412	 3.51619629e+01	 6.20505228e+00	-4.40000000e-01	1.000	 35	 0	
 413	 3.61961383e+01	 6.20505228e+00	-4.40000000e-01	1.000	 35	 0	
 414	 3.72303137e+01	 6.20505228e+00	-4.40000000e-01	1.000	 35	 0	
 415	 3.82644891e+01	 6.20505228e+00	-4.40000000e-01	1.000	 35	 0	
 416	 3.92986644e+01	 6.20505228e+00	-4.40000000e-01	1.000	 35	 0	
 417	 4.03328398e+01	 6.20505228e+00	-4.40000000e-01	1.000	 35	 0	
 418	 4.13670152e+01	 6.20505228e+00	-4.40000000e-01	1.000	 35	 0	
 419	 4.24011906e+01	 6.20505228e+00	-4.40000000e-01	1.000	 35	 0	
 420	 4.34353660e+01	 6.20505228e+00	-4.40000000e-01	1.000	 35	 0	
 421	 4.44695413e+01	 6.20505228e+00	-4.40000000e-01	1.000	 35	 0	
 422	 4.55037167e+01	 6.20505228e+00	-4.40000000e-01	1.000	 35	 0	
 423	 4.65378921e+01	 6.20505228e+00	-4.40000000e-01	1.000	 35	 0	
 424	 4.75720675e+01	 6.20505228e+00	-4.40000000e-01	1.000	 35	 0	
 425	 4.86062429e+01	 6.20505228e+00	-4.40000000e-01	1.000	 35	 0	
 426	 4.96404182e+01	 6.20505228e+00	-4.40000000e-01	1.000	 35	 0	
 427	 5.06745936e+01	 6.20505228e+00	-4.40000000e-01	1.000	 35	 0	
 428	 5.17087690e+01	 6.20505228e+00	-4.40000000e-01	1.000	 35	 0	
 429	 5.27429444e+01	 6.20505228e+00	-4.40000000e-01	1.000	 35	 0	
 430	 5.37771198e+01	 6.20505228e+00	-4.40000000e-01	1.000	 35	 0	
 431	 5.48112951e+01	 6.20505228e+00	-4.40000000e-01	1.000	 35	 0	
 432	 5.58454705e+01	 6.20505228e+00	-4.40000000e-01	1.000	 35	 0	
 433	 5.68796459e+01	 6.20505228e+00	-4.40000000e-01	1.000	 35	 0	
 434	 5.79138213e+01	 6.20505228e+00	-4.40000000e-01	1.000	 35	 0	
 435	 5.89479967e+01	 6.20505228e+00	-4.40000000e-01	1.000	 35	 0	
 436	 5.99821720e+01	 6.20505228e+00	-4.40000000e-01	1.000	 35	 0	
 437	 6.10163474e+01	 6.20505228e+00	-4.40000000e-01	1.000	 35	 0	
 438	 6.20505228e+01	 6.20505228e+00	-4.40000000e-01	1.000	 35	 0	
 439	 6.30846982e+01	 6.20505228e+00	-4.40000000e-01	1.000	 35	 0	
 440	 6.41188736e+01	 6.20505228e+00	-4.40000000e-01	1.000	 35	 0	
 441	 0.00000000e+00	 7.23922766e+00	-4.40000000e-01	1.000	 35	 0	
 442	 1.03417538e+00	 7.23922766e+00	-4.40000000e-01	1.000	 35	 0	
 443	 2.06835076e+00	 7.23922766e+00	-4.40000000e-01	1.000	 35	 0	