ITEM: TIMESTEP
0
ITEM: BOX BOUNDS xx yy zz
-65.40699	 65.40699	
-65.40699	 65.40699	
-1.10000	 1.10000	
ITEM: NUMBER OF ATOMS
31752
ITEM: ATOMS index x y z diameter charge species
   0	 0.00000000e+00	 0.00000000e+00	-4.40000000e-01	1.000	 35	 0	
   1	 1.03820625e+00	 0.00000000e+00	-4.40000000e-01	1.000	 35	 0	
   2	 2.07641251e+00	 0.00000000e+00	-4.40000000e-01	1.000	 35	 0	
   3	 3.11461876e+00	 0.00000000e+00	-4.40000000e-01	1.000	 35	 0	
   4	 4.15282502e+00	 0.00000000e+00	-4.40000000e-01	1.000	 35	 0	
   5	 5.19103127e+00	 0.00000000e+00	-4.40000000e-01	1.000	 35	 0	
   6	 6.22923753e+00	 0.00000000e+00	-4.40000000e-01	1.000	 35	 0	
   7	 7.26744378e+00	 0.00000000e+00	-4.40000000e-01	1.000	 35	 0	
   8	 8.30565003e+00	 0.00000000e+00	-4.40000000e-01	1.000	 35	 0	
   9	 9.34385629e+00	 0.00000000e+00	-4.40000000e-01	1.000	 35	 0	
  10	 1.03820625e+01	 0.00000000e+00	-4.40000000e-01	1.000	 35	 0	
  11	 1.14202688e+01	 0.00000000e+00	-4.40000000e-01	1.000	 35	 0	
  12	 1.24584751e+01	 0.00000000e+00	-4.40000000e-01	1.000	 35	 0	
  13	 1.34966813e+01	 0.00000000e+00	-4.40000000e-01	1.000	 35	 0	
  14	 1.45348876e+01	 0.00000000e+00	-4.40000000e-01	1.000	 35	 0	
  15	 1.55730938e+01	 0.00000000e+00	-4.40000000e-01	1.000	 35	 0	
  16	 1.66113001e+01	 0.00000000e+00	-4.40000000e-01	1.000	 35	 0	
  17	 1.76495063e+01	 0.00000000e+00	-4.40000000e-01	1.000	 35	 0	
  18	 1.86877126e+01	 0.00000000e+00	-4.40000000e-01	1.000	 35	 0	
  19	 1.97259188e+01	 0.00000000e+00	-4.40000000e-01	1.000	 35	 0	
  20	 2.07641251e+01	 0.00000000e+00	-4.40000000e-01	1.000	 35	 0	
  21	 2.18023313e+01	 0.00000000e+00	-4.40000000e-01	1.000	 35	 0	
  22	 2.28405376e+01	 0.00000000e+00	-4.40000000e-01	1.000	 35	 0	
  23	 2.38787438e+01	 0.00000000e+00	-4.40000000e-01	1.000	 35	 0	
  24	 2.49169501e+01	 0.00000000e+00	-4.40000000e-01	1.000	 35	 0	
  25	 2.59551564e+01	 0.00000000e+00	-4.40000000e-01	1.000	 35	 0	
  26	 2.69933626e+01	 0.00000000e+00	-4.40000000e-01	1.000	 35	 0	
  27	 2.80315689e+01	 0.00000000e+00	-4.40000000e-01	1.000	 35	 0	
  28	 2.90697751e+01	 0.00000000e+00	-4.40000000e-01	1.000	 35	 0	
  29	 3.01079814e+01	 0.00000000e+00	-4.40000000e-01	1.000	 35	 0	
  30	 3.11461876e+01	 0.00000000e+00	-4.40000000e-01	1.000	 35	 0	
  31	 3.21843939e+01	 0.00000000e+00	-4.40000000e-01	1.000	 35	 0	
  32	 3.32226001e+01	 0.00000000e+00	-4.40000000e-01	1.000	 35	 0	
  33	 3.42608064e+01	 0.00000000e+00	-4.40000000e-01	1.000	 35	 0	
  34	 3.52990126e+01	 0.00000000e+00	-4.40000000e-01	1.000	 35	 0	
  35	 3.63372189e+01	 0.00000000e+00	-4.40000000e-01	1.000	 35	 0	
  36	 3.73754252e+01	 0.00000000e+00	-4.40000000e-01	1.000	 35	 0	
  37	 3.84136314e+01	 0.00000000e+00	-4.40000000e-01	1.000	 35	 0	
  38	 3.94518377e+01	 0.00000000e+00	-4.40000000e-01	1.000	 35	 0	
  39	 4.04900439e+01	 0.00000000e+00	-4.40000000e-01	1.000	 35	 0	
  40	 4.15282502e+01	 0.00000000e+00	-4.40000000e-01	1.000	 35	 0	
  41	 4.25664564e+01	 0.00000000e+00	-4.40000000e-01	1.000	 35	 0	
  42	 4.36046627e+01	 0.00000000e+00	-4.40000000e-01	1.000	 35	 0	
  43	 4.46428689e+01	 0.00000000e+00	-4.40000000e-01	1.000	 35	 0	
  44	 4.56810752e+01	 0.00000000e+00	-4.40000000e-01	1.000	 35	 0	
  45	 4.67192814e+01	 0.00000000e+00	-4.40000000e-01	1.000	 35	 0	
  46	 4.77574877e+01	 0.00000000e+00	-4.40000000e-01	1.000	 35	 0	
  47	 4.87956939e+01	 0.00000000e+00	-4.40000000e-01	1.000	 35	 0	
  48	 4.98339002e+01	 0.00000000e+00	-4.40000000e-01	1.000	 35	 0	
  49	 5.08721065e+01	 0.00000000e+00	-4.40000000e-01	1.000	 35	 0	
  50	 5.19103127e+01	 0.00000000e+00	-4.40000000e-01	1.000	 35	 0	
  51	 5.29485190e+01	 0.00000000e+00	-4.40000000e-01	1.000	 35	 0	
  52	 5.39867252e+01	 0.00000000e+00	-4.40000000e-01	1.000	 35	 0	
  53	 5.50249315e+01	 0.00000000e+00	-4.40000000e-01	1.000	 35	 0	
  54	 5.60631377e+01	 0.00000000e+00	-4.40000000e-01	1.000	 35	 0	
  55	 5.71013440e+01	 0.00000000e+00	-4.40000000e-01	1.000	 35	 0	
  56	 5.81395502e+01	 0.00000000e+00	-4.40000000e-01	1.000	 35	 0	
  57	 5.91777565e+01	 0.00000000e+00	-4.40000000e-01	1.000	 35	 0	
  58	 6.02159627e+01	 0.00000000e+00	-4.40000000e-01	1.000	 35	 0	
  59	 6.12541690e+01	 0.00000000e+00	-4.40000000e-01	1.000	 35	 0	
  60	 6.22923753e+01	 0.00000000e+00	-4.40000000e-01	1.000	 35	 0	
  61	 6.33305815e+01	 0.00000000e+00	-4.40000000e-01	1.000	 35	 0	
  62	 6.43687878e+01	 0.00000000e+00	-4.40000000e-01	1.000	 35	 0	
  63	-6.54069940e+01	 0.00000000e+00	-4.40000000e-01	1.000	 35	 0	
  64	-6.43687878e+01	 0.00000000e+00	-4.40000000e-01	1.000	 35	 0	
  65	-6.33305815e+01	 0.00000000e+00	-4.40000000e-01	1.000	 35	 0	
  66	-6.22923753e+01	 0.00000000e+00	-4.40000000e-01	1.000	 35	 0	
  67	-6.12541690e+01	 0.00000000e+00	-4.40000000e-01	1.000	 35	 0	
  68	-6.02159627e+01	 0.00000000e+00	-4.40000000e-01	1.000	 35	 0	
  69	-5.91777565e+01	 0.00000000e+00	-4.40000000e-01	1.000	 35	 0	
  70	-5.81395502e+01	 0.00000000e+00	-4.40000000e-01	1.000	 35	 0	
  71	-5.71013440e+01	 0.00000000e+00	-4.40000000e-01	1.000	 35	 0	
  72	-5.60631377e+01	 0.00000000e+00	-4.40000000e-01	1.000	 35	 0	
  73	-5.50249315e+01	 0.00000000e+00	-4.40000000e-01	1.000	 35	 0	
  74	-5.39867252e+01	 0.00000000e+00	-4.40000000e-01	1.000	 35	 0	
  75	-5.29485190e+01	 0.00000000e+00	-4.40000000e-01	1.000	 35	 0	
  76	-5.19103127e+01	 0.00000000e+00	-4.40000000e-01	1.000	 35	 0	
  77	-5.08721065e+01	 0.00000000e+00	-4.40000000e-01	1.000	 35	 0	
  78	-4.98339002e+01	 0.00000000e+00	-4.40000000e-01	1.000	 35	 0	
  79	-4.87956939e+01	 0.00000000e+00	-4.40000000e-01	1.000	 35	 0	
  80	-4.77574877e+01	 0.00000000e+00	-4.40000000e-01	1.000	 35	 0	
  81	-4.67192814e+01	 0.00000000e+00	-4.40000000e-01	1.000	 35	 0	
  82	-4.56810752e+01	 0.00000000e+00	-4.40000000e-01	1.000	 35	 0	
  83	-4.46428689e+01	 0.00000000e+00	-4.40000000e-01	1.000	 35	 0	
  84	-4.36046627e+01	 0.00000000e+00	-4.40000000e-01	1.000	 35	 0	
  85	-4.25664564e+01	 0.00000000e+00	-4.40000000e-01	1.000	 35	 0	
  86	-4.15282502e+01	 0.00000000e+00	-4.40000000e-01	1.000	 35	 0	
  87	-4.04900439e+01	 0.00000000e+00	-4.40000000e-01	1.000	 35	 0	
  88	-3.94518377e+01	 0.00000000e+00	-4.40000000e-01	1.000	 35	 0	
  89	-3.84136314e+01	 0.00000000e+00	-4.40000000e-01	1.000	 35	 0	
  90	-3.73754252e+01	 0.00000000e+00	-4.40000000e-01	1.000	 35	 0	
  91	-3.63372189e+01	 0.00000000e+00	-4.40000000e-01	1.000	 35	 0	
  92	-3.52990126e+01	 0.00000000e+00	-4.40000000e-01	1.000	 35	 0	
  93	-3.42608064e+01	 0.00000000e+00	-4.40000000e-01	1.000	 35	 0	
  94	-3.32226001e+01	 0.00000000e+00	-4.40000000e-01	1.000	 35	 0	
  95	-3.21843939e+01	 0.00000000e+00	-4.40000000e-01	1.000	 35	 0	
  96	-3.11461876e+01	 0.00000000e+00	-4.40000000e-01	1.000	 35	 0	
  97	-3.01079814e+01	 0.00000000e+00	-4.40000000e-01	1.000	 35	 0	
  98	-2.90697751e+01	 0.00000000e+00	-4.40000000e-01	1.000	 35	 0	
  99	-2.80315689e+01	 0.00000000e+00	-4.40000000e-01	1.000	 35	 0	
 100	-2.69933626e+01	 0.00000000e+00	-4.40000000e-01	1.000	 35	 0	
 101	-2.59551564e+01	 0.00000000e+00	-4.40000000e-01	1.000	 35	 0	
 102	-2.49169501e+01	 0.00000000e+00	-4.40000000e-01	1.000	 35	 0	
 103	-2.38787438e+01	 0.00000000e+00	-4.40000000e-01	1.000	 35	 0	
 104	-2.28405376e+01	 0.00000000e+00	-4.40000000e-01	1.000	 35	 0	
 105	-2.18023313e+01	 0.00000000e+00	-4.40000000e-01	1.000	 35	 0	
 106	-2.07641251e+01	 0.00000000e+00	-4.40000000e-01	1.000	 35	 0	
 107	-1.97259188e+01	 0.00000000e+00	-4.40000000e-01	1.000	 35	 0	
 108	-1.86877126e+01	 0.00000000e+00	-4.40000000e-01	1.000	 35	 0	
 109	-1.76495063e+01	 0.00000000e+00	-4.40000000e-01	1.000	 35	 0	
 110	-1.66113001e+01	 0.00000000e+00	-4.40000000e-01	1.000	 35	 0	
 111	-1.55730938e+01	 0.00000000e+00	-4.40000000e-01	1.000	 35	 0	
 112	-1.45348876e+01	 0.00000000e+00	-4.40000000e-01	1.000	 35	 0	
 113	-1.34966813e+01	 0.00000000e+00	-4.40000000e-01	1.000	 35	 0	
 114	-1.24584751e+01	 0.00000000e+00	-4.40000000e-01	1.000	 35	 0	
 115	-1.14202688e+01	 0.00000000e+00	-4.40000000e-01	1.000	 35	 0	
 116	-1.03820625e+01	 0.00000000e+00	-4.40000000e-01	1.000	 35	 0	
 117	-9.34385629e+00	 0.00000000e+00	-4.40000000e-01	1.000	 35	 0	
 118	-8.30565003e+00	 0.00000000e+00	-4.40000000e-01	1.000	 35	 0	
 119	-7.26744378e+00	 0.00000000e+00	-4.40000000e-01	1.000	 35	 0	
 120	-6.22923753e+00	 0.00000000e+00	-4.40000000e-01	1.000	 35	 0	
 121	-5.19103127e+00	 0.00000000e+00	-4.40000000e-01	1.000	 35	 0	
 122	-4.15282502e+00	 0.00000000e+00	-4.40000000e-01	1.000	 35	 0	
 123	-3.11461876e+00	 0.00000000e+00	-4.40000000e-01	1.000	 35	 0	
 124	-2.07641251e+00	 0.00000000e+00	-4.40000000e-01	1.000	 35	 0	
 125	-1.03820625e+00	 0.00000000e+00	-4.40000000e-01	1.000	 35	 0	
 126	 0.00000000e+00	 1.03820625e+00	-4.40000000e-01	1.000	 35	 0	
 127	 1.03820625e+00	 1.03820625e+00	-4.40000000e-01	1.000	 35	 0	
 128	 2.07641251e+00	 1.03820625e+00	-4.40000000e-01	1.000	 35	 0	
 129	 3.11461876e+00	 1.03820625e+00	-4.40000000e-01	1.000	 35	 0	
 130	 4.15282502e+00	 1.03820625e+00	-4.40000000e-01	1.000	 35	 0	
 131	 5.19103127e+00	 1.03820625e+00	-4.40000000e-01	1.000	 35	 0	
 132	 6.22923753e+00	 1.03820625e+00	-4.40000000e-01	1.000	 35	 0	
 133	 7.26744378e+00	 1.03820625e+00	-4.40000000e-01	1.000	 35	 0	
 134	 8.30565003e+00	 1.03820625e+00	-4.40000000e-01	1.000	 35	 0	
 135	 9.34385629e+00	 1.03820625e+00	-4.40000000e-01	1.000	 35	 0	
 136	 1.03820625e+01	 1.03820625e+00	-4.40000000e-01	1.000	 35	 0	
 137	 1.14202688e+01	 1.03820625e+00	-4.40000000e-01	1.000	 35	 0	
 138	 1.24584751e+01	 1.03820625e+00	-4.40000000e-01	1.000	 35	 0	
 139	 1.34966813e+01	 1.03820625e+00	-4.40000000e-01	1.000	 35	 0	
 140	 1.45348876e+01	 1.03820625e+00	-4.40000000e-01	1.000	 35	 0	
 141	 1.55730938e+01	 1.03820625e+00	-4.40000000e-01	1.000	 35	 0	
 142	 1.66113001e+01	 1.03820625e+00	-4.40000000e-01	1.000	 35	 0	
 143	 1.76495063e+01	 1.03820625e+00	-4.40000000e-01	1.000	 35	 0	
 144	 1.86877126e+01	 1.03820625e+00	-4.40000000e-01	1.000	 35	 0	
 145	 1.97259188e+01	 1.03820625e+00	-4.40000000e-01	1.000	 35	 0	
 146	 2.07641251e+01	 1.03820625e+00	-4.40000000e-01	1.000	 35	 0	
 147	 2.18023313e+01	 1.03820625e+00	-4.40000000e-01	1.000	 35	 0	
 148	 2.28405376e+01	 1.03820625e+00	-4.40000000e-01	1.000	 35	 0	
 149	 2.38787438e+01	 1.03820625e+00	-4.40000000e-01	1.000	 35	 0	
 150	 2.49169501e+01	 1.03820625e+00	-4.40000000e-01	1.000	 35	 0	
 151	 2.59551564e+01	 1.03820625e+00	-4.40000000e-01	1.000	 35	 0	
 152	 2.69933626e+01	 1.03820625e+00	-4.40000000e-01	1.000	 35	 0	
 153	 2.80315689e+01	 1.03820625e+00	-4.40000000e-01	1.000	 35	 0	
 154	 2.90697751e+01	 1.03820625e+00	-4.40000000e-01	1.000	 35	 0	
 155	 3.01079814e+01	 1.03820625e+00	-4.40000000e-01	1.000	 35	 0	
 156	 3.11461876e+01	 1.03820625e+00	-4.40000000e-01	1.000	 35	 0	
 157	 3.21843939e+01	 1.03820625e+00	-4.40000000e-01	1.000	 35	 0	
 158	 3.32226001e+01	 1.03820625e+00	-4.40000000e-01	1.000	 35	 0	
 159	 3.42608064e+01	 1.03820625e+00	-4.40000000e-01	1.000	 35	 0	
 160	 3.52990126e+01	 1.03820625e+00	-4.40000000e-01	1.000	 35	 0	
 161	 3.63372189e+01	 1.03820625e+00	-4.40000000e-01	1.000	 35	 0	
 162	 3.73754252e+01	 1.03820625e+00	-4.40000000e-01	1.000	 35	 0	
 163	 3.84136314e+01	 1.03820625e+00	-4.40000000e-01	1.000	 35	 0	
 164	 3.94518377e+01	 1.03820625e+00	-4.40000000e-01	1.000	 35	 0	
 165	 4.04900439e+01	 1.03820625e+00	-4.40000000e-01	1.000	 35	 0	
 166	 4.15282502e+01	 1.03820625e+00	-4.40000000e-01	1.000	 35	 0	
 167	 4.25664564e+01	 1.03820625e+00	-4.40000000e-01	1.000	 35	 0	
 168	 4.36046627e+01	 1.03820625e+00	-4.40000000e-01	1.000	 35	 0	
 169	 4.46428689e+01	 1.03820625e+00	-4.40000000e-01	1.000	 35	 0	
 170	 4.56810752e+01	 1.03820625e+00	-4.40000000e-01	1.000	 35	 0	
 171	 4.67192814e+01	 1.03820625e+00	-4.40000000e-01	1.000	 35	 0	
 172	 4.77574877e+01	 1.03820625e+00	-4.40000000e-01	1.000	 35	 0	
 173	 4.87956939e+01	 1.03820625e+00	-4.40000000e-01	1.000	 35	 0	
 174	 4.98339002e+01	 1.03820625e+00	-4.40000000e-01	1.000	 35	 0	
 175	 5.08721065e+01	 1.03820625e+00	-4.40000000e-01	1.000	 35	 0	
 176	 5.19103127e+01	 1.03820625e+00	-4.40000000e-01	1.000	 35	 0	
 177	 5.29485190e+01	 1.03820625e+00	-4.40000000e-01	1.000	 35	 0	
 178	 5.39867252e+01	 1.03820625e+00	-4.40000000e-01	1.000	 35	 0	
 179	 5.50249315e+01	 1.03820625e+00	-4.40000000e-01	1.000	 35	 0	
 180	 5.60631377e+01	 1.03820625e+00	-4.40000000e-01	1.000	 35	 0	
 181	 5.71013440e+01	 1.03820625e+00	-4.40000000e-01	1.000	 35	 0	
 182	 5.81395502e+01	 1.03820625e+00	-4.40000000e-01	1.000	 35	 0	
 183	 5.91777565e+01	 1.03820625e+00	-4.40000000e-01	1.000	 35	 0	
 184	 6.02159627e+01	 1.03820625e+00	-4.40000000e-01	1.000	 35	 0	
 185	 6.12541690e+01	 1.03820625e+00	-4.40000000e-01	1.000	 35	 0	
 186	 6.22923753e+01	 1.03820625e+00	-4.40000000e-01	1.000	 35	 0	
 187	 6.33305815e+01	 1.03820625e+00	-4.40000000e-01	1.000	 35	 0	
 188	 6.43687878e+01	 1.03820625e+00	-4.40000000e-01	1.000	 35	 0	
 189	-6.54069940e+01	 1.03820625e+00	-4.40000000e-01	1.000	 35	 0	
 190	-6.43687878e+01	 1.03820625e+00	-4.40000000e-01	1.000	 35	 0	
 191	-6.33305815e+01	 1.03820625e+00	-4.40000000e-01	1.000	 35	 0	
 192	-6.22923753e+01	 1.03820625e+00	-4.40000000e-01	1.000	 35	 0	
 193	-6.12541690e+01	 1.03820625e+00	-4.40000000e-01	1.000	 35	 0	
 194	-6.02159627e+01	 1.03820625e+00	-4.40000000e-01	1.000	 35	 0	
 195	-5.91777565e+01	 1.03820625e+00	-4.40000000e-01	1.000	 35	 0	
 196	-5.81395502e+01	 1.03820625e+00	-4.40000000e-01	1.000	 35	 0	
 197	-5.71013440e+01	 1.03820625e+00	-4.40000000e-01	1.000	 35	 0	
 198	-5.60631377e+01	 1.03820625e+00	-4.40000000e-01	1.000	 35	 0	
 199	-5.50249315e+01	 1.03820625e+00	-4.40000000e-01	1.000	 35	 0	
 200	-5.39867252e+01	 1.03820625e+00	-4.40000000e-01	1.000	 35	 0	
 201	-5.29485190e+01	 1.03820625e+00	-4.40000000e-01	1.000	 35	 0	
 202	-5.19103127e+01	 1.03820625e+00	-4.40000000e-01	1.000	 35	 0	
 203	-5.08721065e+01	 1.03820625e+00	-4.40000000e-01	1.000	 35	 0	
 204	-4.98339002e+01	 1.03820625e+00	-4.40000000e-01	1.000	 35	 0	
 205	-4.87956939e+01	 1.03820625e+00	-4.40000000e-01	1.000	 35	 0	
 206	-4.77574877e+01	 1.03820625e+00	-4.40000000e-01	1.000	 35	 0	
 207	-4.67192814e+01	 1.03820625e+00	-4.40000000e-01	1.000	 35	 0	
 208	-4.56810752e+01	 1.03820625e+00	-4.40000000e-01	1.000	 35	 0	
 209	-4.46428689e+01	 1.03820625e+00	-4.40000000e-01	1.000	 35	 0	
 210	-4.36046627e+01	 1.03820625e+00	-4.40000000e-01	1.000	 35	 0	
 211	-4.25664564e+01	 1.03820625e+00	-4.40000000e-01	1.000	 35	 0	
 212	-4.15282502e+01	 1.03820625e+00	-4.40000000e-01	1.000	 35	 0	
 213	-4.04900439e+01	 1.03820625e+00	-4.40000000e-01	1.000	 35	 0	
 214	-3.94518377e+01	 1.03820625e+00	-4.40000000e-01	1.000	 35	 0	
 215	-3.84136314e+01	 1.03820625e+00	-4.40000000e-01	1.000	 35	 0	
 216	-3.73754252e+01	 1.03820625e+00	-4.40000000e-01	1.000	 35	 0	
 217	-3.63372189e+01	 1.03820625e+00	-4.40000000e-01	1.000	 35	 0	
 218	-3.52990126e+01	 1.03820625e+00	-4.40000000e-01	1.000	 35	 0	
 219	-3.42608064e+01	 1.03820625e+00	-4.40000000e-01	1.000	 35	 0	
 220	-3.32226001e+01	 1.03820625e+00	-4.40000000e-01	1.000	 35	 0	
 221	-3.21843939e+01	 1.03820625e+00	-4.40000000e-01	1.000	 35	 0	
 222	-3.11461876e+01	 1.03820625e+00	-4.40000000e-01	1.000	 35	 0	
 223	-3.01079814e+01	 1.03820625e+00	-4.40000000e-01	1.000	 35	 0	
 224	-2.90697751e+01	 1.03820625e+00	-4.40000000e-01	1.000	 35	 0	
 225	-2.80315689e+01	 1.03820625e+00	-4.40000000e-01	1.000	 35	 0	
 226	-2.69933626e+01	 1.03820625e+00	-4.40000000e-01	1.000	 35	 0	
 227	-2.59551564e+01	 1.03820625e+00	-4.40000000e-01	1.000	 35	 0	
 228	-2.49169501e+01	 1.03820625e+00	-4.40000000e-01	1.000	 35	 0	
 229	-2.38787438e+01	 1.03820625e+00	-4.40000000e-01	1.000	 35	 0	
 230	-2.28405376e+01	 1.03820625e+00	-4.40000000e-01	1.000	 35	 0	
 231	-2.18023313e+01	 1.03820625e+00	-4.40000000e-01	1.000	 35	 0	
 232	-2.07641251e+01	 1.03820625e+00	-4.40000000e-01	1.000	 35	 0	
 233	-1.97259188e+01	 1.03820625e+00	-4.40000000e-01	1.000	 35	 0	
 234	-1.86877126e+01	 1.03820625e+00	-4.40000000e-01	1.000	 35	 0	
 235	-1.76495063e+01	 1.03820625e+00	-4.40000000e-01	1.000	 35	 0	
 236	-1.66113001e+01	 1.03820625e+00	-4.40000000e-01	1.000	 35	 0	
 237	-1.55730938e+01	 1.03820625e+00	-4.40000000e-01	1.000	 35	 0	
 238	-1.45348876e+01	 1.03820625e+00	-4.40000000e-01	1.000	 35	 0	
 239	-1.34966813e+01	 1.03820625e+00	-4.40000000e-01	1.000	 35	 0	
 240	-1.24584751e+01	 1.03820625e+00	-4.40000000e-01	1.000	 35	 0	
 241	-1.14202688e+01	 1.03820625e+00	-4.40000000e-01	1.000	 35	 0	
 242	-1.03820625e+01	 1.03820625e+00	-4.40000000e-01	1.000	 35	 0	
 243	-9.34385629e+00	 1.03820625e+00	-4.40000000e-01	1.000	 35	 0	
 244	-8.30565003e+00	 1.03820625e+00	-4.40000000e-01	1.000	 35	 0	
 245	-7.26744378e+00	 1.03820625e+00	-4.40000000e-01	1.000	 35	 0	
 246	-6.22923753e+00	 1.03820625e+00	-4.40000000e-01	1.000	 35	 0	
 247	-5.19103127e+00	 1.03820625e+00	-4.40000000e-01	1.000	 35	 0	
 248	-4.15282502e+00	 1.03820625e+00	-4.40000000e-01	1.000	 35	 0	
 249	-3.11461876e+00	 1.03820625e+00	-4.40000000e-01	1.000	 35	 0	
 250	-2.07641251e+00	 1.03820625e+00	-4.40000000e-01	1.000	 35	 0	
 251	-1.03820625e+00	 1.03820625e+00	-4.40000000e-01	1.000	 35	 0	
 252	 0.00000000e+00	 2.07641251e+00	-4.40000000e-01	1.000	 35	 0	
 253	 1.03820625e+00	 2.07641251e+00	-4.40000000e-01	1.000	 35	 0	
 254	 2.07641251e+00	 2.07641251e+00	-4.40000000e-01	1.000	 35	 0	
 255	 3.11461876e+00	 2.07641251e+00	-4.40000000e-01	1.000	 35	 0	
 256	 4.15282502e+00	 2.07641251e+00	-4.40000000e-01	1.000	 35	 0	
 257	 5.19103127e+00	 2.07641251e+00	-4.40000000e-01	1.000	 35	 0	
 258	 6.22923753e+00	 2.07641251e+00	-4.40000000e-01	1.000	 35	 0	
 259	 7.26744378e+00	 2.07641251e+00	-4.40000000e-01	1.000	 35	 0	
 260	 8.30565003e+00	 2.07641251e+00	-4.40000000e-01	1.000	 35	 0	
 261	 9.34385629e+00	 2.07641251e+00	-4.40000000e-01	1.000	 35	 0	
 262	 1.03820625e+01	 2.07641251e+00	-4.40000000e-01	1.000	 35	 0	
 263	 1.14202688e+01	 2.07641251e+00	-4.40000000e-01	1.000	 35	 0	
 264	 1.24584751e+01	 2.07641251e+00	-4.40000000e-01	1.000	 35	 0	
 265	 1.34966813e+01	 2.07641251e+00	-4.40000000e-01	1.000	 35	 0	
 266	 1.45348876e+01	 2.07641251e+00	-4.40000000e-01	1.000	 35	 0	
 267	 1.55730938e+01	 2.07641251e+00	-4.40000000e-01	1.000	 35	 0	
 268	 1.66113001e+01	 2.07641251e+00	-4.40000000e-01	1.000	 35	 0	
 269	 1.76495063e+01	 2.07641251e+00	-4.40000000e-01	1.000	 35	 0	
 270	 1.86877126e+01	 2.07641251e+00	-4.40000000e-01	1.000	 35	 0	
 271	 1.97259188e+01	 2.07641251e+00	-4.40000000e-01	1.000	 35	 0	
 272	 2.07641251e+01	 2.07641251e+00	-4.40000000e-01	1.000	 35	 0	
 273	 2.18023313e+01	 2.07641251e+00	-4.40000000e-01	1.000	 35	 0	
 274	 2.28405376e+01	 2.07641251e+00	-4.40000000e-01	1.000	 35	 0	
 275	 2.38787438e+01	 2.07641251e+00	-4.40000000e-01	1.000	 35	 0	
 276	 2.49169501e+01	 2.07641251e+00	-4.40000000e-01	1.000	 35	 0	
 277	 2.59551564e+01	 2.07641251e+00	-4.40000000e-01	1.000	 35	 0	
 278	 2.69933626e+01	 2.07641251e+00	-4.40000000e-01	1.000	 35	 0	
 279	 2.80315689e+01	 2.07641251e+00	-4.40000000e-01	1.000	 35	 0	
 280	 2.90697751e+01	 2.07641251e+00	-4.40000000e-01	1.000	 35	 0	
 281	 3.01079814e+01	 2.07641251e+00	-4.40000000e-01	1.000	 35	 0	
 282	 3.11461876e+01	 2.07641251e+00	-4.40000000e-01	1.000	 35	 0	
 283	 3.21843939e+01	 2.07641251e+00	-4.40000000e-01	1.000	 35	 0	
 284	 3.32226001e+01	 2.07641251e+00	-4.40000000e-01	1.000	 35	 0	
 285	 3.42608064e+01	 2.07641251e+00	-4.40000000e-01	1.000	 35	 0	
 286	 3.52990126e+01	 2.07641251e+00	-4.40000000e-01	1.000	 35	 0	
 287	 3.63372189e+01	 2.07641251e+00	-4.40000000e-01	1.000	 35	 0	
 288	 3.73754252e+01	 2.07641251e+00	-4.40000000e-01	1.000	 35	 0	
 289	 3.84136314e+01	 2.07641251e+00	-4.40000000e-01	1.000	 35	 0	
 290	 3.94518377e+01	 2.07641251e+00	-4.40000000e-01	1.000	 35	 0	
 291	 4.04900439e+01	 2.07641251e+00	-4.40000000e-01	1.000	 35	 0	
 292	 4.15282502e+01	 2.07641251e+00	-4.40000000e-01	1.000	 35	 0	
 293	 4.25664564e+01	 2.07641251e+00	-4.40000000e-01	1.000	 35	 0	
 294	 4.36046627e+01	 2.07641251e+00	-4.40000000e-01	1.000	 35	 0	
 295	 4.46428689e+01	 2.07641251e+00	-4.40000000e-01	1.000	 35	 0	
 296	 4.56810752e+01	 2.07641251e+00	-4.40000000e-01	1.000	 35	 0	
 297	 4.67192814e+01	 2.07641251e+00	-4.40000000e-01	1.000	 35	 0	
 298	 4.77574877e+01	 2.07641251e+00	-4.40000000e-01	1.000	 35	 0	
 299	 4.87956939e+01	 2.07641251e+00	-4.40000000e-01	1.000	 35	 0	
 300	 4.98339002e+01	 2.07641251e+00	-4.40000000e-01	1.000	 35	 0	
 301	 5.08721065e+01	 2.07641251e+00	-4.40000000e-01	1.000	 35	 0	
 302	 5.19103127e+01	 2.07641251e+00	-4.40000000e-01	1.000	 35	 0	
 303	 5.29485190e+01	 2.07641251e+00	-4.40000000e-01	1.000	 35	 0	
 304	 5.39867252e+01	 2.07641251e+00	-4.40000000e-01	1.000	 35	 0	
 305	 5.50249315e+01	 2.07641251e+00	-4.40000000e-01	1.000	 35	 0	
 306	 5.60631377e+01	 2.07641251e+00	-4.40000000e-01	1.000	 35	 0	
 307	 5.71013440e+01	 2.07641251e+00	-4.40000000e-01	1.000	 35	 0	
 308	 5.81395502e+01	 2.07641251e+00	-4.40000000e-01	1.000	 35	 0	
 309	 5.91777565e+01	 2.07641251e+00	-4.40000000e-01	1.000	 35	 0	
 310	 6.02159627e+01	 2.07641251e+00	-4.40000000e-01	1.000	 35	 0	
 311	 6.12541690e+01	 2.07641251e+00	-4.40000000e-01	1.000	 35	 0	
 312	 6.22923753e+01	 2.07641251e+00	-4.40000000e-01	1.000	 35	 0	
 313	 6.33305815e+01	 2.07641251e+00	-4.40000000e-01	1.000	 35	 0	
 314	 6.43687878e+01	 2.07641251e+00	-4.40000000e-01	1.000	 35	 0	
 315	-6.54069940e+01	 2.07641251e+00	-4.40000000e-01	1.000	 35	 0	
 316	-6.43687878e+01	 2.07641251e+00	-4.40000000e-01	1.000	 35	 0	
 317	-6.33305815e+01	 2.07641251e+00	-4.40000000e-01	1.000	 35	 0	
 318	-6.22923753e+01	 2.07641251e+00	-4.40000000e-01	1.000	 35	 0	
 319	-6.12541690e+01	 2.07641251e+00	-4.40000000e-01	1.000	 35	 0	
 320	-6.02159627e+01	 2.07641251e+00	-4.40000000e-01	1.000	 35	 0	
 321	-5.91777565e+01	 2.07641251e+00	-4.40000000e-01	1.000	 35	 0	
 322	-5.81395502e+01	 2.07641251e+00	-4.40000000e-01	1.000	 35	 0	
 323	-5.71013440e+01	 2.07641251e+00	-4.40000000e-01	1.000	 35	 0	
 324	-5.60631377e+01	 2.07641251e+00	-4.40000000e-01	1.000	 35	 0	
 325	-5.50249315e+01	 2.07641251e+00	-4.40000000e-01	1.000	 35	 0	
 326	-5.39867252e+01	 2.07641251e+00	-4.40000000e-01	1.000	 35	 0	
 327	-5.29485190e+01	 2.07641251e+00	-4.40000000e-01	1.000	 35	 0	
 328	-5.19103127e+01	 2.07641251e+00	-4.40000000e-01	1.000	 35	 0	
 329	-5.08721065e+01	 2.07641251e+00	-4.40000000e-01	1.000	 35	 0	
 330	-4.98339002e+01	 2.07641251e+00	-4.40000000e-01	1.000	 35	 0	
 331	-4.87956939e+01	 2.07641251e+00	-4.40000000e-01	1.000	 35	 0	
 332	-4.77574877e+01	 2.07641251e+00	-4.40000000e-01	1.000	 35	 0	
 333	-4.67192814e+01	 2.07641251e+00	-4.40000000e-01	1.000	 35	 0	
 334	-4.56810752e+01	 2.07641251e+00	-4.40000000e-01	1.000	 35	 0	
 335	-4.46428689e+01	 2.07641251e+00	-4.40000000e-01	1.000	 35	 0	
 336	-4.36046627e+01	 2.07641251e+00	-4.40000000e-01	1.000	 35	 0	
 337	-4.25664564e+01	 2.07641251e+00	-4.40000000e-01	1.000	 35	 0	
 338	-4.15282502e+01	 2.07641251e+00	-4.40000000e-01	1.000	 35	 0	
 339	-4.04900439e+01	 2.07641251e+00	-4.40000000e-01	1.000	 35	 0	
 340	-3.94518377e+01	 2.07641251e+00	-4.40000000e-01	1.000	 35	 0	
 341	-3.84136314e+01	 2.07641251e+00	-4.40000000e-01	1.000	 35	 0	
 342	-3.73754252e+01	 2.07641251e+00	-4.40000000e-01	1.000	 35	 0	
 343	-3.63372189e+01	 2.07641251e+00	-4.40000000e-01	1.000	 35	 0	
 344	-3.52990126e+01	 2.07641251e+00	-4.40000000e-01	1.000	 35	 0	
 345	-3.42608064e+01	 2.07641251e+00	-4.40000000e-01	1.000	 35	 0	
 346	-3.32226001e+01	 2.07641251e+00	-4.40000000e-01	1.000	 35	 0	
 347	-3.21843939e+01	 2.07641251e+00	-4.40000000e-01	1.000	 35	 0	
 348	-3.11461876e+01	 2.07641251e+00	-4.40000000e-01	1.000	 35	 0	
 349	-3.01079814e+01	 2.07641251e+00	-4.40000000e-01	1.000	 35	 0	
 350	-2.90697751e+01	 2.07641251e+00	-4.40000000e-01	1.000	 35	 0	
 351	-2.80315689e+01	 2.07641251e+00	-4.40000000e-01	1.000	 35	 0	
 352	-2.69933626e+01	 2.07641251e+00	-4.40000000e-01	1.000	 35	 0	
 353	-2.59551564e+01	 2.07641251e+00	-4.40000000e-01	1.000	 35	 0	
 354	-2.49169501e+01	 2.07641251e+00	-4.40000000e-01	1.000	 35	 0	
 355	-2.38787438e+01	 2.07641251e+00	-4.40000000e-01	1.000	 35	 0	
 356	-2.28405376e+01	 2.07641251e+00	-4.40000000e-01	1.000	 35	 0	
 357	-2.18023313e+01	 2.07641251e+00	-4.40000000e-01	1.000	 35	 0	
 358	-2.07641251e+01	 2.07641251e+00	-4.40000000e-01	1.000	 35	 0	
 359	-1.97259188e+01	 2.07641251e+00	-4.40000000e-01	1.000	 35	 0	
 360	-1.86877126e+01	 2.07641251e+00	-4.40000000e-01	1.000	 35	 0	
 361	-1.76495063e+01	 2.07641251e+00	-4.40000000e-01	1.000	 35	 0	
 362	-1.66113001e+01	 2.07641251e+00	-4.40000000e-01	1.000	 35	 0	
 363	-1.55730938e+01	 2.07641251e+00	-4.40000000e-01	1.000	 35	 0	
 364	-1.45348876e+01	 2.07641251e+00	-4.40000000e-01	1.000	 35	 0	
 365	-1.34966813e+01	 2.07641251e+00	-4.40000000e-01	1.000	 35	 0	
 366	-1.24584751e+01	 2.07641251e+00	-4.40000000e-01	1.000	 35	 0	
 367	-1.14202688e+01	 2.07641251e+00	-4.40000000e-01	1.000	 35	 0	
 368	-1.03820625e+01	 2.07641251e+00	-4.40000000e-01	1.000	 35	 0	
 369	-9.34385629e+00	 2.07641251e+00	-4.40000000e-01	1.000	 35	 0	
 370	-8.30565003e+00	 2.07641251e+00	-4.40000000e-01	1.000	 35	 0	
 371	-7.26744378e+00	 2.07641251e+00	-4.40000000e-01	1.000	 35	 0	
 372	-6.22923753e+00	 2.07641251e+00	-4.40000000e-01	1.000	 35	 0	
 373	-5.19103127e+00	 2.07641251e+00	-4.40000000e-01	1.000	 35	 0	
 374	-4.15282502e+00	 2.07641251e+00	-4.40000000e-01	1.000	 35	 0	
 375	-3.11461876e+00	 2.07641251e+00	-4.40000000e-01	1.000	 35	 0	
 376	-2.07641251e+00	 2.07641251e+00	-4.40000000e-01	1.000	 35	 0	
 377	-1.03820625e+00	 2.07641251e+00	-4.40000000e-01	1.000	 35	 0	
 378	 0.00000000e+00	 3.11461876e+00	-4.40000000e-01	1.000	 35	 0	
 379	 1.03820625e+00	 3.11461876e+00	-4.40000000e-01	1.000	 35	 0	
 380	 2.07641251e+00	 3.11461876e+00	-4.40000000e-01	1.000	 35	 0	
 381	 3.11461876e+00	 3.11461876e+00	-4.40000000e-01	1.000	 35	 0	
 382	 4.15282502e+00	 3.11461876e+00	-4.40000000e-01	1.000	 35	 0	
 383	 5.19103127e+00	 3.11461876e+00	-4.40000000e-01	1.000	 35	 0	
 384	 6.22923753e+00	 3.11461876e+00	-4.40000000e-01	1.000	 35	 0	
 385	 7.26744378e+00	 3.11461876e+00	-4.40000000e-01	1.000	 35	 0	
 386	 8.30565003e+00	 3.11461876e+00	-4.40000000e-01	1.000	 35	 0	
 387	 9.34385629e+00	 3.11461876e+00	-4.40000000e-01	1.000	 35	 0	
 388	 1.03820625e+01	 3.11461876e+00	-4.40000000e-01	1.000	 35	 0	
 389	 1.14202688e+01	 3.11461876e+00	-4.40000000e-01	1.000	 35	 0	
 390	 1.24584751e+01	 3.11461876e+00	-4.40000000e-01	1.000	 35	 0	
 391	 1.34966813e+01	 3.11461876e+00	-4.40000000e-01	1.000	 35	 0	
 392	 1.45348876e+01	 3.11461876e+00	-4.40000000e-01	1.000	 35	 0	
 393	 1.55730938e+01	 3.11461876e+00	-4.40000000e-01	1.000	 35	 0	
 394	 1.66113001e+01	 3.11461876e+00	-4.40000000e-01	1.000	 35	 0	
 395	 1.76495063e+01	 3.11461876e+00	-4.40000000e-01	1.000	 35	 0	
 396	 1.86877126e+01	 3.11461876e+00	-4.40000000e-01	1.000	 35	 0	
 397	 1.97259188e+01	 3.11461876e+00	-4.40000000e-01	1.000	 35	 0	
 398	 2.07641251e+01	 3.11461876e+00	-4.40000000e-01	1.000	 35	 0	
 399	 2.18023313e+01	 3.11461876e+00	-4.40000000e-01	1.000	 35	 0	
 400	 2.28405376e+01	 3.11461876e+00	-4.40000000e-01	1.000	 35	 0	
 401	 2.38787438e+01	 3.11461876e+00	-4.40000000e-01	1.000	 35	 0	
 402	 2.49169501e+01	 3.11461876e+00	-4.40000000e-01	1.000	 35	 0	
 403	 2.59551564e+01	 3.11461876e+00	-4.40000000e-01	1.000	 35	 0	
 404	 2.69933626e+01	 3.11461876e+00	-4.40000000e-01	1.000	 35	 0	
 405	 2.80315689e+01	 3.11461876e+00	-4.40000000e-01	1.000	 35	 0	
 406	 2.90697751e+01	 3.11461876e+00	-4.40000000e-01	1.000	 35	 0	
 407	 3.01079814e+01	 3.11461876e+00	-4.40000000e-01	1.000	 35	 0	
 408	 3.11461876e+01	 3.11461876e+00	-4.40000000e-01	1.000	 35	 0	
 409	 3.21843939e+01	 3.11461876e+00	-4.40000000e-01	1.000	 35	 0	
 410	 3.32226001e+01	 3.11461876e+00	-4.40000000e-01	1.000	 35	 0	
 411	 3.42608064e+01	 3.11461876e+00	-4.40000000e-01	1.000	 35	 0	
 412	 3.52990126e+01	 3.11461876e+00	-4.40000000e-01	1.000	 35	 0	
 413	 3.63372189e+01	 3.11461876e+00	-4.40000000e-01	1.000	 35	 0	
 414	 3.73754252e+01	 3.11461876e+00	-4.40000000e-01	1.000	 35	 0	
 415	 3.84136314e+01	 3.11461876e+00	-4.40000000e-01	1.000	 35	 0	
 416	 3.94518377e+01	 3.11461876e+00	-4.40000000e-01	1.000	 35	 0	
 417	 4.04900439e+01	 3.11461876e+00	-4.40000000e-01	1.000	 35	 0	
 418	 4.15282502e+01	 3.11461876e+00	-4.40000000e-01	1.000	 35	 0	
 419	 4.25664564e+01	 3.11461876e+00	-4.40000000e-01	1.000	 35	 0	
 420	 4.36046627e+01	 3.11461876e+00	-4.40000000e-01	1.000	 35	 0	
 421	 4.46428689e+01	 3.11461876e+00	-4.40000000e-01	1.000	 35	 0	
 422	 4.56810752e+01	 3.11461876e+00	-4.40000000e-01	1.000	 35	 0	
 423	 4.67192814e+01	 3.11461876e+00	-4.40000000e-01	1.000	 35	 0	
 424	 4.77574877e+01	 3.11461876e+00	-4.40000000e-01	1.000	 35	 0	
 425	 4.87956939e+01	 3.11461876e+00	-4.40000000e-01	1.000	 35	 0	
 426	 4.98339002e+01	 3.11461876e+00	-4.40000000e-01	1.000	 35	 0	
 427	 5.08721065e+01	 3.11461876e+00	-4.40000000e-01	1.000	 35	 0	
 428	 5.19103127e+01	 3.11461876e+00	-4.40000000e-01	1.000	 35	 0	
 429	 5.29485190e+01	 3.11461876e+00	-4.40000000e-01	1.000	 35	 0	
 430	 5.39867252e+01	 3.11461876e+00	-4.40000000e-01	1.000	 35	 0	
 431	 5.50249315e+01	 3.11461876e+00	-4.40000000e-01	1.000	 35	 0	
 432	 5.60631377e+01	 3.11461876e+00	-4.40000000e-01	1.000	 35	 0	
 433	 5.71013440e+01	 3.11461876e+00	-4.40000000e-01	1.000	 35	 0	
 434	 5.81395502e+01	 3.11461876e+00	-4.40000000e-01	1.000	 35	 0	
 435	 5.91777565e+01	 3.11461876e+00	-4.40000000e-01	1.000	 35	 0	
 436	 6.02159627e+01	 3.11461876e+00	-4.40000000e-01	1.000	 35	 0	
 437	 6.12541690e+01	 3.11461876e+00	-4.40000000e-01	1.000	 35	 0	
 438	 6.22923753e+01	 3.11461876e+00	-4.40000000e-01	1.000	 35	 0	
 439	 6.33305815e+01	 3.11461876e+00	-4.40000000e-01	1.000	 35	 0	
 440	 6.43687878e+01	 3.11461876e+00	-4.40000000e-01	1.000	 35	 0	
 441	-6.54069940e+01	 3.11461876e+00	-4.40000000e-01	1.000	 35	 0	
 442	-6.43687878e+01	 3.11461876e+00	-4.40000000e-01	1.000	 35	 0	
 443	-6.33305815e+01	 3.11461876e+00	-4.40000000e-01	1.000	 35	 0	
 444	-6.22923753e+01	 3.11461876e+00	-4.40000000e-01	1.000	 35	 0	