ITEM: TIMESTEP
0
ITEM: BOX BOUNDS xx yy zz
-11.89302	 11.89302	
-11.89302	 11.89302	
-1.10000	 1.10000	
ITEM: NUMBER OF ATOMS
1058
ITEM: ATOMS index x y z diameter charge species
   0	-10.68150	-1.66023	-0.33544	1.000	 35	 0	
   1	-1.41833	-1.58695	-0.32142	1.000	 35	 0	
   2	-8.07926	-1.29260	 0.33865	1.000	 35	 0	
   3	-10.74560	-0.70259	-0.31645	1.000	 35	 0	
   4	-1.16031	-0.07697	 0.32225	1.000	 35	 0	
   5	-9.72133	-0.61891	-0.34936	1.000	 35	 0	
   6	-8.79342	-0.62042	-0.32045	1.000	 35	 0	
   7	-6.89268	-0.63780	-0.31495	1.000	 35	 0	
   8	-5.87985	-0.64004	-0.34310	1.000	 35	 0	
   9	 11.54730	-0.19657	 0.32998	1.000	 35	 0	
  10	-4.92947	-0.63550	-0.35106	1.000	 35	 0	
  11	-3.00565	-0.73603	-0.31842	1.000	 35	 0	
  12	-0.39194	-1.64045	-0.35171	1.000	 35	 0	
  13	 0.60898	-1.65406	-0.33472	1.000	 35	 0	
  14	 11.86420	 0.27737	-0.35584	1.000	 35	 0	
  15	-0.04162	-0.64975	-0.33653	1.000	 35	 0	
  16	-6.71020	-1.68513	-0.32539	1.000	 35	 0	
  17	 4.20666	-0.54818	-0.35064	1.000	 35	 0	
  18	 5.26110	-0.67559	-0.33998	1.000	 35	 0	
  19	 6.31942	-0.68098	-0.34919	1.000	 35	 0	
  20	 7.37953	-0.75391	-0.34717	1.000	 35	 0	
  21	 3.62621	-1.66486	-0.32775	1.000	 35	 0	
  22	-11.73660	-1.73562	-0.31939	1.000	 35	 0	
  23	 2.06664	-0.57188	-0.35049	1.000	 35	 0	
  24	 8.61374	 1.37851	-0.35456	1.000	 35	 0	
  25	 3.13783	-0.72878	-0.33550	1.000	 35	 0	
  26	 1.84552	-0.10988	 0.36979	1.000	 35	 0	
  27	-0.04697	 1.49931	-0.35905	1.000	 35	 0	
  28	 8.71214	-0.60464	-0.31879	1.000	 35	 0	
  29	-7.71627	 1.36621	-0.32351	1.000	 35	 0	
  30	 10.87450	-0.67197	-0.34532	1.000	 35	 0	
  31	 5.61766	-1.69314	-0.30689	1.000	 35	 0	
  32	-7.36566	 0.39114	-0.34217	1.000	 35	 0	
  33	 9.63459	-0.11178	 0.35445	1.000	 35	 0	
  34	-6.43104	 0.42667	-0.33063	1.000	 35	 0	
  35	-5.51306	 0.29951	-0.30421	1.000	 35	 0	
  36	-3.57261	 0.33571	-0.33561	1.000	 35	 0	
  37	-2.63043	 0.41142	-0.34025	1.000	 35	 0	
  38	-1.69814	 0.34639	-0.31378	1.000	 35	 0	
  39	-0.66597	 0.36484	-0.33148	1.000	 35	 0	
  40	 1.44146	 0.32938	-0.33927	1.000	 35	 0	
  41	-7.85480	-0.73570	-0.31526	1.000	 35	 0	
  42	-5.65262	-1.67625	-0.35793	1.000	 35	 0	
  43	 3.51572	 0.49681	-0.34359	1.000	 35	 0	
  44	 4.49954	 0.40020	-0.32887	1.000	 35	 0	
  45	 5.57645	 0.32454	-0.35113	1.000	 35	 0	
  46	-10.09050	 0.35597	-0.33535	1.000	 35	 0	
  47	 7.52230	 1.40912	-0.34739	1.000	 35	 0	
  48	-8.23353	 1.91215	 0.33973	1.000	 35	 0	
  49	-4.76736	 0.96443	 0.32647	1.000	 35	 0	
  50	 10.72780	 1.41921	-0.36992	1.000	 35	 0	
  51	 11.81160	 1.42012	-0.34962	1.000	 35	 0	
  52	-9.18322	 2.36865	-0.37182	1.000	 35	 0	
  53	-11.26920	 2.43932	-0.33570	1.000	 35	 0	
  54	-10.33790	 1.91998	 0.32142	1.000	 35	 0	
  55	-3.76502	 0.98149	 0.33949	1.000	 35	 0	
  56	 2.49881	 0.31703	-0.34941	1.000	 35	 0	
  57	-9.85109	 1.52670	-0.34498	1.000	 35	 0	
  58	 6.80676	 0.42312	-0.33821	1.000	 35	 0	
  59	-6.49206	 1.41421	-0.31823	1.000	 35	 0	
  60	-5.42305	 1.34235	-0.33903	1.000	 35	 0	
  61	-3.25345	 1.35639	-0.33906	1.000	 35	 0	
  62	-6.93062	 2.42402	-0.34000	1.000	 35	 0	
  63	-2.22381	 1.35922	-0.35028	1.000	 35	 0	
  64	-1.11895	 1.42585	-0.34220	1.000	 35	 0	
  65	 7.93606	 0.32423	-0.34836	1.000	 35	 0	
  66	 4.08130	 1.47526	-0.32425	1.000	 35	 0	
  67	-10.99770	 0.36570	-0.33558	1.000	 35	 0	
  68	 9.78614	-0.61562	-0.34735	1.000	 35	 0	
  69	 3.09986	 1.47097	-0.34184	1.000	 35	 0	
  70	 5.03990	 2.97400	 0.36437	1.000	 35	 0	
  71	 5.12649	 1.30300	-0.33859	1.000	 35	 0	
  72	 6.21774	 1.37273	-0.32808	1.000	 35	 0	
  73	 1.35540	 2.39444	-0.33223	1.000	 35	 0	
  74	 2.51875	 2.41539	-0.36246	1.000	 35	 0	
  75	-3.76975	 2.39589	-0.32444	1.000	 35	 0	
  76	 5.60412	 1.76454	 0.32020	1.000	 35	 0	
  77	 3.46879	 2.53291	-0.33092	1.000	 35	 0	
  78	 4.61808	 2.52680	-0.35892	1.000	 35	 0	
  79	 5.66106	 2.34848	-0.34197	1.000	 35	 0	
  80	 7.10034	 3.45233	-0.35219	1.000	 35	 0	
  81	 4.25611	 0.91186	 0.36296	1.000	 35	 0	
  82	 6.72472	 2.41374	-0.36100	1.000	 35	 0	
  83	 9.19870	 0.30625	-0.34692	1.000	 35	 0	
  84	 10.36940	 2.43474	-0.32029	1.000	 35	 0	
  85	 11.44280	 1.83263	 0.35234	1.000	 35	 0	
  86	 11.35660	 2.41581	-0.30649	1.000	 35	 0	
  87	-9.91718	 3.58282	-0.36438	1.000	 35	 0	
  88	-10.18620	 2.51188	-0.37185	1.000	 35	 0	
  89	-7.99690	 2.51436	-0.26603	1.000	 35	 0	
  90	-5.80471	 2.43528	-0.32601	1.000	 35	 0	
  91	 2.03682	 1.39688	-0.35511	1.000	 35	 0	
  92	-6.81945	 3.95729	 0.36086	1.000	 35	 0	
  93	-10.96120	 3.42706	-0.35395	1.000	 35	 0	
  94	 11.83480	 4.51579	-0.32961	1.000	 35	 0	
  95	 3.99375	 4.56486	-0.33507	1.000	 35	 0	
  96	-8.86183	 3.36863	-0.33906	1.000	 35	 0	
  97	-7.78321	 3.51702	-0.35083	1.000	 35	 0	
  98	-6.71616	 3.40646	-0.34786	1.000	 35	 0	
  99	-5.61629	 3.41384	-0.33706	1.000	 35	 0	
 100	-8.13162	 3.18140	 0.36196	1.000	 35	 0	
 101	-3.52953	 3.47542	-0.33015	1.000	 35	 0	
 102	-1.65587	 2.38814	-0.35353	1.000	 35	 0	
 103	 10.15710	 4.90377	 0.36097	1.000	 35	 0	
 104	 9.31859	 2.41804	-0.35202	1.000	 35	 0	
 105	-0.64818	 2.39759	-0.33352	1.000	 35	 0	
 106	-1.46581	 3.46278	-0.30044	1.000	 35	 0	
 107	-0.37897	 3.42185	-0.33377	1.000	 35	 0	
 108	 0.79649	 3.49501	-0.32815	1.000	 35	 0	
 109	 4.04052	 3.55148	-0.31163	1.000	 35	 0	
 110	 5.12244	 3.48559	-0.35851	1.000	 35	 0	
 111	 6.10588	 3.44056	-0.32194	1.000	 35	 0	
 112	-3.91390	 3.92969	 0.34108	1.000	 35	 0	
 113	 8.16316	 2.36385	-0.37091	1.000	 35	 0	
 114	 8.10081	 3.43442	-0.34298	1.000	 35	 0	
 115	-5.79329	 4.52512	-0.34597	1.000	 35	 0	
 116	-10.49410	 5.61720	-0.33856	1.000	 35	 0	
 117	-4.83918	 4.44980	-0.29663	1.000	 35	 0	
 118	-3.89353	 4.46870	-0.35216	1.000	 35	 0	
 119	 11.55270	 3.97872	 0.32419	1.000	 35	 0	
 120	-2.10156	 4.42797	-0.33382	1.000	 35	 0	
 121	 2.95840	 4.56268	-0.33672	1.000	 35	 0	
 122	 2.59206	 4.06701	 0.31033	1.000	 35	 0	
 123	 10.55590	 3.88205	 0.32846	1.000	 35	 0	
 124	 4.97252	 4.47898	-0.33116	1.000	 35	 0	
 125	 5.95844	 4.41416	-0.34329	1.000	 35	 0	
 126	 6.93572	 4.42296	-0.31540	1.000	 35	 0	
 127	 8.77735	 4.41015	-0.32631	1.000	 35	 0	
 128	 9.76614	 4.47158	-0.35195	1.000	 35	 0	
 129	 10.78820	 4.44615	-0.31279	1.000	 35	 0	
 130	-10.93450	 4.48608	-0.30727	1.000	 35	 0	
 131	-9.92154	 4.61080	-0.32773	1.000	 35	 0	
 132	-10.88670	 1.47448	-0.35408	1.000	 35	 0	
 133	-8.85751	 4.55119	-0.35358	1.000	 35	 0	
 134	-7.84064	 4.65852	-0.34596	1.000	 35	 0	
 135	-6.85492	 4.54551	-0.33747	1.000	 35	 0	
 136	 9.58795	 5.96285	 0.32736	1.000	 35	 0	
 137	-2.53636	 3.40959	-0.33012	1.000	 35	 0	
 138	 2.82324	 5.65967	-0.34707	1.000	 35	 0	
 139	 0.14286	 6.08702	 0.33187	1.000	 35	 0	
 140	 6.19838	 5.46050	-0.32967	1.000	 35	 0	
 141	 7.20026	 5.51139	-0.34235	1.000	 35	 0	
 142	 8.21934	 5.52450	-0.36357	1.000	 35	 0	
 143	 9.24918	 5.41979	-0.32951	1.000	 35	 0	
 144	 10.33330	 5.42502	-0.32366	1.000	 35	 0	
 145	 11.29590	 5.47621	-0.32007	1.000	 35	 0	
 146	-11.47550	 5.57943	-0.33965	1.000	 35	 0	
 147	 11.64390	 5.96906	 0.36341	1.000	 35	 0	
 148	-6.14845	 5.52282	-0.34553	1.000	 35	 0	
 149	-2.71831	 6.56450	-0.36338	1.000	 35	 0	
 150	 6.51212	 7.55141	-0.32867	1.000	 35	 0	
 151	-4.78564	 5.49437	-0.34450	1.000	 35	 0	
 152	 1.22297	 6.02021	 0.30346	1.000	 35	 0	
 153	 7.90747	 4.99389	 0.32062	1.000	 35	 0	
 154	-3.71521	 5.52977	-0.32716	1.000	 35	 0	
 155	-2.59207	 5.50342	-0.36743	1.000	 35	 0	
 156	-1.57771	 5.57593	-0.33692	1.000	 35	 0	
 157	-4.11645	 5.03018	 0.32161	1.000	 35	 0	
 158	-0.60130	 5.54611	-0.35121	1.000	 35	 0	
 159	 0.47332	 5.60230	-0.34416	1.000	 35	 0	
 160	 1.75921	 5.59831	-0.33579	1.000	 35	 0	
 161	-7.18719	 5.55581	-0.34584	1.000	 35	 0	
 162	-8.95302	 6.51892	-0.33537	1.000	 35	 0	
 163	-4.15100	 8.05641	 0.33274	1.000	 35	 0	
 164	-8.33498	 5.52015	-0.32548	1.000	 35	 0	
 165	-5.92782	 6.50191	-0.33192	1.000	 35	 0	
 166	-4.88467	 6.47274	-0.35555	1.000	 35	 0	
 167	-3.74623	 6.62969	-0.34449	1.000	 35	 0	
 168	-1.61071	 6.57742	-0.34930	1.000	 35	 0	
 169	 0.41724	 6.65561	-0.35233	1.000	 35	 0	
 170	-0.62203	 7.72396	-0.33169	1.000	 35	 0	
 171	 2.38068	 6.65826	-0.35780	1.000	 35	 0	
 172	 3.46706	 6.58041	-0.34225	1.000	 35	 0	
 173	 9.64642	 7.52137	-0.36572	1.000	 35	 0	
 174	 7.90346	 6.56593	-0.33624	1.000	 35	 0	
 175	 10.03780	 6.48438	-0.32163	1.000	 35	 0	
 176	 10.99500	 6.43128	-0.33461	1.000	 35	 0	
 177	-9.76926	 5.93656	 0.34702	1.000	 35	 0	
 178	-10.86740	 6.57911	-0.33976	1.000	 35	 0	
 179	-8.04689	 6.99080	 0.37325	1.000	 35	 0	
 180	-9.33023	 5.59011	-0.33492	1.000	 35	 0	
 181	-9.88420	 6.49039	-0.35161	1.000	 35	 0	
 182	-8.62576	 5.99977	 0.31940	1.000	 35	 0	
 183	-4.87250	 7.02132	 0.34322	1.000	 35	 0	
 184	-10.06690	 7.01048	 0.32975	1.000	 35	 0	
 185	-10.31910	 7.59460	-0.34696	1.000	 35	 0	
 186	-9.36174	 7.63473	-0.32855	1.000	 35	 0	
 187	-11.78000	 6.48918	-0.33690	1.000	 35	 0	
 188	-7.51294	 7.58525	-0.31790	1.000	 35	 0	
 189	-6.48214	 7.56833	-0.32385	1.000	 35	 0	
 190	-4.53884	 7.48636	-0.31272	1.000	 35	 0	
 191	-3.58742	 7.64458	-0.31201	1.000	 35	 0	
 192	-2.65174	 7.68574	-0.36127	1.000	 35	 0	
 193	-1.65255	 7.68257	-0.32924	1.000	 35	 0	
 194	-4.41881	 8.60409	-0.33901	1.000	 35	 0	
 195	-11.03110	 7.11055	 0.34286	1.000	 35	 0	
 196	-0.98732	 8.70007	-0.29647	1.000	 35	 0	
 197	 3.47148	 7.64624	-0.34189	1.000	 35	 0	
 198	 5.46618	 7.62016	-0.34120	1.000	 35	 0	
 199	 1.52485	 7.80622	-0.33727	1.000	 35	 0	
 200	 7.59823	 7.64940	-0.37187	1.000	 35	 0	
 201	 4.70081	 6.62665	-0.32489	1.000	 35	 0	
 202	-11.51160	 8.19398	 0.34342	1.000	 35	 0	
 203	 4.49392	 7.70477	-0.35005	1.000	 35	 0	
 204	 10.62650	 7.60903	-0.36028	1.000	 35	 0	
 205	 11.57580	 7.57616	-0.32762	1.000	 35	 0	
 206	-11.27940	 7.64724	-0.34145	1.000	 35	 0	
 207	-3.13459	 8.74148	-0.34716	1.000	 35	 0	
 208	-0.03533	 8.64739	-0.34686	1.000	 35	 0	
 209	 8.44391	 8.11844	 0.32854	1.000	 35	 0	
 210	-9.72945	 10.27070	 0.32556	1.000	 35	 0	
 211	 1.98553	 8.82160	-0.33237	1.000	 35	 0	
 212	 2.46924	 7.76385	-0.36159	1.000	 35	 0	
 213	 5.89020	 8.65462	-0.32819	1.000	 35	 0	
 214	 4.85946	 9.25459	 0.34327	1.000	 35	 0	
 215	 2.46310	 9.79913	-0.32329	1.000	 35	 0	
 216	-6.15610	 8.12673	 0.31128	1.000	 35	 0	
 217	 9.07701	 8.48333	-0.35186	1.000	 35	 0	
 218	 3.84778	 9.28359	 0.35545	1.000	 35	 0	
 219	 10.26740	 8.63605	-0.36521	1.000	 35	 0	
 220	 11.44710	 8.69460	-0.32854	1.000	 35	 0	
 221	-11.27210	 8.69932	-0.34908	1.000	 35	 0	
 222	-10.09640	 8.62982	-0.32126	1.000	 35	 0	
 223	-9.00341	 8.57913	-0.33566	1.000	 35	 0	
 224	-7.86696	 8.50032	-0.34370	1.000	 35	 0	
 225	-0.35213	 9.67146	-0.36683	1.000	 35	 0	
 226	-6.79681	 8.64451	-0.35999	1.000	 35	 0	
 227	-2.23805	 8.07866	 0.33393	1.000	 35	 0	
 228	-5.72655	 8.64760	-0.33947	1.000	 35	 0	
 229	-0.51388	 9.13617	 0.33776	1.000	 35	 0	
 230	 10.85410	 9.66119	-0.34177	1.000	 35	 0	
 231	-11.84440	 9.71524	-0.35338	1.000	 35	 0	
 232	-10.57770	 9.66979	-0.32713	1.000	 35	 0	
 233	-8.45323	 9.65133	-0.32606	1.000	 35	 0	
 234	-7.37507	 9.69744	-0.33144	1.000	 35	 0	
 235	-11.77070	 9.14812	 0.34245	1.000	 35	 0	
 236	 7.51162	 11.67160	-0.31189	1.000	 35	 0	
 237	-6.37643	 9.65587	-0.33434	1.000	 35	 0	
 238	 8.01960	 8.58091	-0.35196	1.000	 35	 0	
 239	-3.27701	 9.68531	-0.31694	1.000	 35	 0	
 240	-2.70337	 10.84820	-0.34263	1.000	 35	 0	
 241	 1.38239	 10.89670	-0.32105	1.000	 35	 0	
 242	 9.25041	 10.00310	 0.31665	1.000	 35	 0	
 243	 11.29290	 10.10020	 0.33383	1.000	 35	 0	
 244	-2.28146	 9.73864	-0.32910	1.000	 35	 0	
 245	 0.62288	 9.69388	-0.34321	1.000	 35	 0	
 246	-3.17996	 8.18210	 0.33574	1.000	 35	 0	
 247	 1.57815	 9.85664	-0.33532	1.000	 35	 0	
 248	 3.38640	 9.77107	-0.33044	1.000	 35	 0	
 249	 2.92189	 8.71773	-0.36927	1.000	 35	 0	
 250	 6.37754	 9.53974	-0.34965	1.000	 35	 0	
 251	 7.42034	 9.48014	-0.33936	1.000	 35	 0	
 252	 9.79285	 9.59552	-0.33503	1.000	 35	 0	
 253	-1.65588	 10.80750	-0.33155	1.000	 35	 0	
 254	-0.65609	 10.72370	-0.33462	1.000	 35	 0	
 255	 0.38233	 10.71820	-0.34228	1.000	 35	 0	
 256	-3.12915	 11.24720	 0.33913	1.000	 35	 0	
 257	 3.41083	 10.78250	-0.31593	1.000	 35	 0	
 258	 4.36719	 9.69795	-0.30292	1.000	 35	 0	
 259	 4.37116	 10.77990	-0.32173	1.000	 35	 0	
 260	-6.78589	 10.22420	 0.36666	1.000	 35	 0	
 261	 2.05137	 11.87230	-0.31963	1.000	 35	 0	
 262	 5.41161	 10.81520	-0.32423	1.000	 35	 0	
 263	 5.51195	 11.81790	-0.31761	1.000	 35	 0	
 264	 6.44913	 10.67640	-0.31425	1.000	 35	 0	
 265	 9.45934	 10.57110	-0.32487	1.000	 35	 0	
 266	 10.48180	 10.73840	-0.34208	1.000	 35	 0	
 267	 11.51560	 10.69480	-0.31553	1.000	 35	 0	
 268	-10.24700	 10.74250	-0.35901	1.000	 35	 0	
 269	-9.27289	 10.70760	-0.33069	1.000	 35	 0	
 270	-7.40465	 10.69370	-0.32512	1.000	 35	 0	
 271	-6.49215	 10.61370	-0.35490	1.000	 35	 0	
 272	-5.63799	 10.90130	-0.30785	1.000	 35	 0	
 273	-4.70838	 10.70090	-0.33893	1.000	 35	 0	
 274	-3.68624	 10.78400	-0.32604	1.000	 35	 0	
 275	-1.11955	 11.27530	 0.33051	1.000	 35	 0	
 276	-0.20930	 11.74770	-0.33789	1.000	 35	 0	
 277	 5.75851	-10.93960	-0.29894	1.000	 35	 0	
 278	 0.88310	 11.83420	-0.37732	1.000	 35	 0	
 279	-10.54350	 11.32270	 0.33452	1.000	 35	 0	
 280	-11.65500	 11.27070	 0.36206	1.000	 35	 0	
 281	 1.48985	-10.94680	-0.32784	1.000	 35	 0	
 282	 6.51321	 11.67770	-0.33769	1.000	 35	 0	
 283	 8.54297	 11.73870	-0.32093	1.000	 35	 0	
 284	 9.54005	 11.63870	-0.33243	1.000	 35	 0	
 285	 10.52720	 11.78690	-0.32944	1.000	 35	 0	
 286	 11.46210	 11.67300	-0.34153	1.000	 35	 0	
 287	-11.33390	 11.71960	-0.32053	1.000	 35	 0	
 288	-10.37640	 11.88360	-0.33081	1.000	 35	 0	
 289	-9.37971	-11.86970	-0.34116	1.000	 35	 0	
 290	-8.35151	 11.79170	-0.32042	1.000	 35	 0	
 291	-7.31280	 11.81900	-0.32983	1.000	 35	 0	
 292	-6.28658	 11.79130	-0.34262	1.000	 35	 0	
 293	-5.30323	 11.87900	-0.34802	1.000	 35	 0	
 294	-4.30731	 11.79270	-0.31169	1.000	 35	 0	
 295	-0.67060	-10.98420	-0.32891	1.000	 35	 0	
 296	-3.32564	 11.79090	-0.32645	1.000	 35	 0	
 297	-2.23913	 11.77620	-0.34259	1.000	 35	 0	
 298	-1.21902	-11.87880	-0.33306	1.000	 35	 0	
 299	-4.30816	-11.02190	-0.34204	1.000	 35	 0	
 300	-1.83948	-10.95990	-0.33941	1.000	 35	 0	
 301	 4.55791	-8.97550	-0.32355	1.000	 35	 0	
 302	 0.41871	-11.01630	-0.35730	1.000	 35	 0	
 303	 9.29576	-11.52290	 0.33881	1.000	 35	 0	
 304	 2.51077	-10.84400	-0.36819	1.000	 35	 0	
 305	 5.36112	-11.42730	 0.35800	1.000	 35	 0	
 306	 3.70847	-10.97350	-0.35218	1.000	 35	 0	
 307	-7.23811	-10.03880	-0.34887	1.000	 35	 0	
 308	-6.35450	-10.52050	 0.37109	1.000	 35	 0	
 309	 7.73476	-10.92310	-0.33875	1.000	 35	 0	
 310	 9.65992	-11.03450	-0.36451	1.000	 35	 0	
 311	 10.79050	-11.00630	-0.33757	1.000	 35	 0	
 312	-11.88240	-11.08650	-0.34661	1.000	 35	 0	
 313	-3.36094	-10.50730	 0.33481	1.000	 35	 0	
 314	-9.91335	-10.91520	-0.31960	1.000	 35	 0	
 315	-8.76781	-10.96030	-0.35412	1.000	 35	 0	
 316	 7.27519	-10.01130	-0.33906	1.000	 35	 0	
 317	-7.76300	-10.99020	-0.35652	1.000	 35	 0	
 318	 8.32356	-10.05040	-0.34272	1.000	 35	 0	
 319	-6.72631	-10.97620	-0.33156	1.000	 35	 0	
 320	 7.31472	-11.48990	 0.31346	1.000	 35	 0	
 321	-5.41541	-10.93200	-0.36819	1.000	 35	 0	
 322	-4.08086	-9.97288	-0.35536	1.000	 35	 0	
 323	-1.21975	-9.96912	-0.28485	1.000	 35	 0	
 324	 5.59431	-8.91373	-0.34770	1.000	 35	 0	
 325	-0.28308	-10.04380	-0.31957	1.000	 35	 0	
 326	 2.03284	-9.91338	-0.35970	1.000	 35	 0	
 327	-3.02120	-7.97893	-0.35116	1.000	 35	 0	
 328	 7.90590	-10.37980	 0.36518	1.000	 35	 0	
 329	 1.42101	-11.60740	 0.32523	1.000	 35	 0	
 330	-10.44150	-9.94978	-0.33214	1.000	 35	 0	
 331	-3.12016	-9.97245	-0.32803	1.000	 35	 0	
 332	 4.26477	-10.02520	-0.34810	1.000	 35	 0	
 333	 3.08210	-9.38982	 0.33838	1.000	 35	 0	
 334	 11.63830	-9.43265	 0.33721	1.000	 35	 0	
 335	 8.67592	-11.05820	-0.35718	1.000	 35	 0	
 336	 5.26659	-9.96861	-0.33331	1.000	 35	 0	
 337	 6.31346	-9.94446	-0.34565	1.000	 35	 0	
 338	-11.08550	-9.39667	 0.35098	1.000	 35	 0	
 339	 6.73887	-11.09530	-0.34506	1.000	 35	 0	
 340	 8.79401	-9.00749	-0.31660	1.000	 35	 0	
 341	-11.49450	-9.88904	-0.32437	1.000	 35	 0	
 342	-8.24657	-9.92293	-0.34312	1.000	 35	 0	
 343	 9.79500	-9.04176	-0.35691	1.000	 35	 0	
 344	-5.13384	-9.92715	-0.34369	1.000	 35	 0	
 345	-6.17429	-10.04340	-0.35533	1.000	 35	 0	
 346	 10.33740	-10.06640	-0.38047	1.000	 35	 0	
 347	 4.09447	-9.40785	 0.33433	1.000	 35	 0	
 348	 10.72540	-8.99065	-0.32596	1.000	 35	 0	
 349	 11.68090	-8.85854	-0.33512	1.000	 35	 0	
 350	-10.78570	-8.98345	-0.34515	1.000	 35	 0	
 351	-9.71600	-8.95555	-0.34298	1.000	 35	 0	
 352	-5.66565	-8.96647	-0.34802	1.000	 35	 0	
 353	-3.43515	-9.00591	-0.34030	1.000	 35	 0	
 354	-2.25100	-9.00357	-0.35679	1.000	 35	 0	
 355	 6.23500	-8.03282	-0.34329	1.000	 35	 0	
 356	-1.14537	-8.91643	-0.32869	1.000	 35	 0	
 357	 0.01193	-8.96432	-0.32178	1.000	 35	 0	
 358	 4.83601	-10.40850	 0.32282	1.000	 35	 0	
 359	 7.79155	-9.09909	-0.36538	1.000	 35	 0	
 360	-10.92480	-6.38079	 0.32306	1.000	 35	 0	
 361	 1.30624	-8.90318	-0.36223	1.000	 35	 0	
 362	 1.43386	-7.46399	 0.32104	1.000	 35	 0	
 363	 2.39275	-8.82419	-0.31516	1.000	 35	 0	
 364	 3.52141	-8.88166	-0.32103	1.000	 35	 0	
 365	 10.36370	-6.87062	-0.34707	1.000	 35	 0	
 366	 6.73827	-8.96848	-0.32939	1.000	 35	 0	
 367	-4.05716	-8.02833	-0.34596	1.000	 35	 0	
 368	 2.41255	-7.29534	 0.34536	1.000	 35	 0	
 369	 5.26919	-7.83278	-0.32973	1.000	 35	 0	
 370	-3.76382	-7.56765	 0.32853	1.000	 35	 0	
 371	 9.41708	-8.04158	-0.32062	1.000	 35	 0	
 372	-7.91364	-7.54685	 0.33623	1.000	 35	 0	
 373	 11.48700	-7.86297	-0.31970	1.000	 35	 0	
 374	 11.01870	-7.44023	 0.33516	1.000	 35	 0	
 375	-6.64044	-9.07346	-0.29891	1.000	 35	 0	
 376	-11.68470	-7.42856	 0.34612	1.000	 35	 0	
 377	-9.19200	-7.95409	-0.32359	1.000	 35	 0	
 378	-1.51478	-6.93056	-0.37000	1.000	 35	 0	
 379	-8.16107	-8.05979	-0.35802	1.000	 35	 0	
 380	-7.08576	-8.13573	-0.34433	1.000	 35	 0	
 381	-6.14082	-8.01053	-0.34302	1.000	 35	 0	
 382	-5.01669	-8.06376	-0.37058	1.000	 35	 0	
 383	-2.04610	-7.93100	-0.34866	1.000	 35	 0	
 384	-9.99609	-6.36260	 0.36391	1.000	 35	 0	
 385	-1.04204	-7.82959	-0.32857	1.000	 35	 0	
 386	 2.12395	-7.87910	-0.35106	1.000	 35	 0	
 387	 4.27838	-7.91382	-0.36277	1.000	 35	 0	
 388	 3.06865	-7.89408	-0.35269	1.000	 35	 0	
 389	-7.50344	-6.99272	-0.29001	1.000	 35	 0	
 390	 9.94560	-8.45137	 0.33784	1.000	 35	 0	
 391	 4.92596	-6.28111	 0.32130	1.000	 35	 0	
 392	-0.49036	-6.77800	-0.34375	1.000	 35	 0	
 393	 0.66409	-7.02222	-0.35007	1.000	 35	 0	
 394	-5.83936	-7.55704	 0.34972	1.000	 35	 0	
 395	 9.33273	-6.82899	-0.36331	1.000	 35	 0	
 396	 1.65506	-6.86392	-0.34176	1.000	 35	 0	
 397	 11.12100	-4.78453	-0.34972	1.000	 35	 0	
 398	 2.78403	-6.90629	-0.34154	1.000	 35	 0	
 399	 3.78594	-6.93553	-0.35728	1.000	 35	 0	
 400	 8.24517	-6.91119	-0.36274	1.000	 35	 0	
 401	 1.05327	-7.96911	-0.34734	1.000	 35	 0	
 402	 6.35018	-7.43197	 0.32587	1.000	 35	 0	
 403	-8.99982	-6.34362	 0.30200	1.000	 35	 0	
 404	-11.41170	-6.94192	-0.32378	1.000	 35	 0	
 405	-10.48570	-6.84706	-0.34366	1.000	 35	 0	
 406	 7.27690	-8.01998	-0.35185	1.000	 35	 0	
 407	-11.28530	-7.95095	-0.30272	1.000	 35	 0	
 408	 3.39198	-7.37977	 0.30821	1.000	 35	 0	
 409	-8.58681	-7.04382	-0.32689	1.000	 35	 0	
 410	-0.83375	-5.85180	-0.35745	1.000	 35	 0	
 411	 2.92035	-6.35039	 0.35452	1.000	 35	 0	
 412	-6.43173	-6.92305	-0.29409	1.000	 35	 0	
 413	-5.46679	-7.13074	-0.34378	1.000	 35	 0	
 414	 7.30388	-5.39705	 0.33060	1.000	 35	 0	
 415	-4.10523	-6.03372	-0.32340	1.000	 35	 0	
 416	-3.11590	-6.11730	-0.31709	1.000	 35	 0	
 417	-6.19282	-5.45190	 0.35873	1.000	 35	 0	
 418	 8.91098	-6.39993	 0.32641	1.000	 35	 0	
 419	-1.94310	-6.04234	-0.33806	1.000	 35	 0	
 420	-4.50025	-7.03050	-0.34936	1.000	 35	 0	
 421	 0.20250	-5.90824	-0.34387	1.000	 35	 0	
 422	 1.22131	-5.94579	-0.34813	1.000	 35	 0	
 423	 2.31018	-5.86549	-0.33161	1.000	 35	 0	
 424	 3.36213	-5.98805	-0.35138	1.000	 35	 0	
 425	 6.01332	-6.88465	-0.33965	1.000	 35	 0	
 426	 10.42480	-5.28714	 0.32348	1.000	 35	 0	
 427	 7.12727	-6.85479	-0.36484	1.000	 35	 0	
 428	-1.00964	-4.58945	-0.31901	1.000	 35	 0	
 429	 10.77270	-5.77038	-0.33734	1.000	 35	 0	
 430	 11.77940	-5.79498	-0.34465	1.000	 35	 0	
 431	-10.03520	-5.80838	-0.35548	1.000	 35	 0	
 432	-7.90382	-6.01043	-0.29929	1.000	 35	 0	
 433	 11.38720	-6.92432	-0.32282	1.000	 35	 0	
 434	-5.71647	-6.54939	 0.31861	1.000	 35	 0	
 435	-5.97859	-5.96497	-0.32427	1.000	 35	 0	
 436	-5.03857	-6.01198	-0.34455	1.000	 35	 0	
 437	-5.98471	-4.39933	 0.32238	1.000	 35	 0	
 438	 4.83520	-4.87891	-0.32326	1.000	 35	 0	
 439	 5.81447	-4.92602	-0.34618	1.000	 35	 0	
 440	 6.96192	-4.87020	-0.33902	1.000	 35	 0	
 441	 8.02113	-4.81009	-0.34093	1.000	 35	 0	
 442	 9.01247	-4.74451	-0.35602	1.000	 35	 0	
 443	-9.60276	-4.88683	-0.26410	1.000	 35	 0	
 444	 4.33022	-5.92645	-0.33186	1.000	 35	 0	
 445	 5.38054	-5.87051	-0.33336	1.000	 35	 0	
 446	 6.56792	-5.86243	-0.33361	1.000	 35	 0	
 447	 7.65092	-5.85756	-0.33992	1.000	 35	 0	
 448	 8.71485	-5.82842	-0.34926	1.000	 35	 0	
 449	 9.73930	-5.82132	-0.33233	1.000	 35	 0	
 450	-3.85610	-4.90649	-0.35395	1.000	 35	 0	
 451	-2.96490	-4.87987	-0.37603	1.000	 35	 0	
 452	-2.00109	-4.88694	-0.32967	1.000	 35	 0	
 453	-5.73000	-4.96266	-0.31340	1.000	 35	 0	
 454	 0.01252	-4.78705	-0.35819	1.000	 35	 0	
 455	 10.78870	-4.30138	 0.35231	1.000	 35	 0	
 456	-10.97510	-5.78107	-0.34195	1.000	 35	 0	
 457	 2.00180	-4.83347	-0.35796	1.000	 35	 0	
 458	 2.92811	-4.88097	-0.35773	1.000	 35	 0	
 459	 3.88204	-4.91438	-0.33986	1.000	 35	 0	
 460	 9.60999	-3.66321	-0.32471	1.000	 35	 0	
 461	 10.72110	-3.71173	-0.32504	1.000	 35	 0	
 462	 11.84440	-3.81073	-0.34197	1.000	 35	 0	
 463	-8.64739	-4.85586	-0.36231	1.000	 35	 0	
 464	-7.70415	-4.97185	-0.33246	1.000	 35	 0	
 465	-6.71953	-4.94362	-0.33156	1.000	 35	 0	
 466	-3.06157	-5.47846	 0.31677	1.000	 35	 0	
 467	-8.95397	-3.24357	 0.33747	1.000	 35	 0	
 468	-6.70018	-3.81649	-0.33793	1.000	 35	 0	
 469	-5.57908	-3.93137	-0.33828	1.000	 35	 0	
 470	 8.02192	-2.04577	 0.36706	1.000	 35	 0	
 471	-4.57307	-3.86941	-0.33949	1.000	 35	 0	
 472	-3.50338	-3.84138	-0.33512	1.000	 35	 0	
 473	-2.54963	-3.82407	-0.37325	1.000	 35	 0	
 474	-0.58695	-3.72236	-0.31327	1.000	 35	 0	
 475	 0.40197	-3.81975	-0.32288	1.000	 35	 0	
 476	 1.53874	-3.81264	-0.32434	1.000	 35	 0	
 477	 3.86313	-3.69142	-0.31059	1.000	 35	 0	
 478	 4.91170	-3.73346	-0.32948	1.000	 35	 0	
 479	 5.83198	-3.77820	-0.33370	1.000	 35	 0	
 480	 6.74783	-3.89641	-0.35595	1.000	 35	 0	
 481	 7.68406	-3.73685	-0.32288	1.000	 35	 0	
 482	 8.64687	-3.58562	-0.36186	1.000	 35	 0	
 483	 5.24353	-2.81733	-0.33851	1.000	 35	 0	
 484	-9.78266	-3.82683	-0.35301	1.000	 35	 0	
 485	 1.67187	-4.42687	 0.34102	1.000	 35	 0	
 486	 9.72669	-4.33626	 0.33139	1.000	 35	 0	
 487	 3.24248	-2.82070	-0.33998	1.000	 35	 0	
 488	 6.34215	-2.86537	-0.33866	1.000	 35	 0	
 489	 7.29472	-2.87660	-0.34775	1.000	 35	 0	
 490	 6.78917	-1.79095	-0.32934	1.000	 35	 0	
 491	-8.78306	-3.84058	-0.32371	1.000	 35	 0	
 492	 8.28272	-2.53651	-0.35143	1.000	 35	 0	
 493	 3.27406	-3.44013	 0.33424	1.000	 35	 0	
 494	 9.36370	-2.64295	-0.31992	1.000	 35	 0	
 495	 10.01380	-2.26181	 0.34288	1.000	 35	 0	
 496	-8.51678	-2.77426	-0.33380	1.000	 35	 0	
 497	-7.51045	-2.91281	-0.33224	1.000	 35	 0	
 498	-6.39691	-2.79986	-0.35323	1.000	 35	 0	
 499	 1.23811	-2.24577	 0.33983	1.000	 35	 0	
 500	-5.24184	-2.75752	-0.31771	1.000	 35	 0	
 501	-4.17762	-2.85069	-0.34912	1.000	 35	 0	
 502	-3.01586	-2.77040	-0.34566	1.000	 35	 0	
 503	-0.84586	-2.65552	-0.35988	1.000	 35	 0	
 504	 0.22837	-2.74671	-0.36014	1.000	 35	 0	
 505	-10.82060	-3.68609	-0.35735	1.000	 35	 0	
 506	 5.00632	-1.18500	 0.35785	1.000	 35	 0	
 507	 5.15781	-2.20118	 0.31838	1.000	 35	 0	
 508	-11.79170	-0.67214	-0.32358	1.000	 35	 0	
 509	-9.70722	-1.74105	-0.32800	1.000	 35	 0	
 510	-8.70640	-1.65307	-0.33842	1.000	 35	 0	
 511	-7.66780	-1.77860	-0.32977	1.000	 35	 0	
 512	-1.04121	-0.58730	-0.34108	1.000	 35	 0	
 513	 1.25971	-2.83171	-0.33557	1.000	 35	 0	
 514	 2.25687	-2.80715	-0.33900	1.000	 35	 0	
 515	-7.12335	-1.23223	 0.33813	1.000	 35	 0	
 516	-3.51954	-1.78442	-0.33630	1.000	 35	 0	
 517	 4.16734	-2.72139	-0.35837	1.000	 35	 0	
 518	 1.64083	-1.69136	-0.33151	1.000	 35	 0	
 519	-4.57763	-1.77722	-0.30910	1.000	 35	 0	
 520	 4.62176	-1.73152	-0.30819	1.000	 35	 0	
 521	-3.93673	-1.32552	 0.34851	1.000	 35	 0	
 522	-11.11790	-1.24072	 0.33808	1.000	 35	 0	
 523	-7.43551	-0.23497	 0.33350	1.000	 35	 0	
 524	 7.99980	-1.52319	-0.35360	1.000	 35	 0	
 525	 9.03769	-1.57996	-0.33670	1.000	 35	 0	
 526	 10.02850	-1.62651	-0.33495	1.000	 35	 0	
 527	 11.06350	-1.61986	-0.36754	1.000	 35	 0	
 528	-9.71998	-2.80387	-0.35594	1.000	 35	 0	
 529	-3.21407	-0.15534	 0.34303	1.000	 35	 0	
 530	-2.18543	-0.06718	 0.35289	1.000	 35	 0	
 531	 0.88120	-0.05039	 0.34049	1.000	 35	 0	
 532	-4.58268	 0.40291	-0.32588	1.000	 35	 0	
 533	 2.88177	-0.15394	 0.33398	1.000	 35	 0	
 534	 10.13000	 0.68149	 0.26951	1.000	 35	 0	
 535	 3.88460	-0.02738	 0.31826	1.000	 35	 0	
 536	 11.07100	 0.91621	 0.32572	1.000	 35	 0	
 537	-8.85669	 0.93770	 0.35812	1.000	 35	 0	
 538	-7.90539	 0.75533	 0.33952	1.000	 35	 0	
 539	-6.86151	 0.89772	 0.35340	1.000	 35	 0	
 540	-10.13550	-0.21684	 0.33331	1.000	 35	 0	
 541	-2.71760	 0.97772	 0.33446	1.000	 35	 0	
 542	 6.22034	-1.26189	 0.29897	1.000	 35	 0	
 543	 7.73709	-0.20674	 0.34316	1.000	 35	 0	
 544	 8.65950	 0.00815	 0.32896	1.000	 35	 0	
 545	-11.15200	-0.18109	 0.33727	1.000	 35	 0	
 546	-9.00666	-0.08746	 0.35265	1.000	 35	 0	
 547	 2.65642	-1.85543	-0.31558	1.000	 35	 0	
 548	-10.86890	 0.95203	 0.35380	1.000	 35	 0	
 549	 10.78060	 0.32386	-0.32029	1.000	 35	 0	
 550	-5.78662	 0.86689	 0.33729	1.000	 35	 0	
 551	-6.33213	-0.22545	 0.33623	1.000	 35	 0	
 552	 1.27398	 0.88713	 0.32988	1.000	 35	 0	
 553	 0.26281	 0.91832	 0.31653	1.000	 35	 0	
 554	-4.31104	 1.41361	-0.33364	1.000	 35	 0	
 555	 0.95642	 1.42078	-0.35556	1.000	 35	 0	
 556	 6.19353	 0.73981	 0.34274	1.000	 35	 0	
 557	 2.24789	 0.83015	 0.36963	1.000	 35	 0	
 558	 3.22168	 0.89587	 0.34472	1.000	 35	 0	
 559	 0.32401	 0.28800	-0.32310	1.000	 35	 0	
 560	 5.24504	 0.72371	 0.35545	1.000	 35	 0	
 561	 10.38280	 1.74923	 0.32798	1.000	 35	 0	
 562	 9.65833	 1.27021	-0.32843	1.000	 35	 0	
 563	 7.18565	 0.95020	 0.31892	1.000	 35	 0	
 564	 8.17428	 0.95267	 0.31539	1.000	 35	 0	
 565	 9.21311	 0.91140	 0.35212	1.000	 35	 0	
 566	-11.80850	 0.84045	 0.33773	1.000	 35	 0	
 567	-9.88420	 0.90482	 0.32929	1.000	 35	 0	
 568	 1.72607	 1.84977	 0.33948	1.000	 35	 0	
 569	-11.37540	 1.83755	 0.34398	1.000	 35	 0	
 570	-9.16061	 0.48961	-0.36203	1.000	 35	 0	
 571	-9.23615	 1.81121	 0.35175	1.000	 35	 0	
 572	 10.61320	-0.25051	 0.36628	1.000	 35	 0	
 573	-0.74378	 0.92887	 0.35243	1.000	 35	 0	
 574	-8.73655	 1.45128	-0.35010	1.000	 35	 0	
 575	-4.98470	 2.83825	 0.32182	1.000	 35	 0	
 576	 3.68774	 1.95188	 0.34061	1.000	 35	 0	
 577	-4.87757	 2.25832	-0.35444	1.000	 35	 0	
 578	 4.69387	 1.93894	 0.27658	1.000	 35	 0	
 579	-10.72060	 2.87342	 0.31710	1.000	 35	 0	
 580	 6.63212	 1.87082	 0.33225	1.000	 35	 0	
 581	 7.52413	 2.05800	 0.29013	1.000	 35	 0	
 582	 8.56826	 1.92062	 0.35313	1.000	 35	 0	
 583	 9.49441	 1.89204	 0.34390	1.000	 35	 0	
 584	 4.09233	 2.94436	 0.32289	1.000	 35	 0	
 585	 0.38645	 2.47958	-0.33539	1.000	 35	 0	
 586	 10.14720	 3.46318	-0.34663	1.000	 35	 0	
 587	-7.25416	 1.87767	 0.32077	1.000	 35	 0	
 588	-6.27544	 2.00196	 0.34901	1.000	 35	 0	
 589	-5.34677	 1.89864	 0.33332	1.000	 35	 0	
 590	-4.27873	 1.99195	 0.34918	1.000	 35	 0	
 591	-3.24335	 1.95165	 0.31770	1.000	 35	 0	
 592	-1.69561	 0.96675	 0.32275	1.000	 35	 0	
 593	-2.26141	 1.93372	 0.33119	1.000	 35	 0	
 594	-1.28288	 1.92323	 0.37730	1.000	 35	 0	
 595	-0.28658	 1.94721	 0.36274	1.000	 35	 0	
 596	 0.74689	 1.98269	 0.33013	1.000	 35	 0	
 597	 2.66357	 1.85103	 0.34917	1.000	 35	 0	
 598	-7.20818	 2.99238	 0.32310	1.000	 35	 0	
 599	-6.16746	 3.02572	 0.33604	1.000	 35	 0	
 600	-3.96015	 2.95669	 0.32070	1.000	 35	 0	
 601	 9.13011	 3.44384	-0.33404	1.000	 35	 0	
 602	-2.97458	 2.91503	 0.33724	1.000	 35	 0	
 603	-1.90835	 2.95858	 0.32137	1.000	 35	 0	
 604	-0.87057	 2.97800	 0.31859	1.000	 35	 0	
 605	 1.15965	 2.98670	 0.33841	1.000	 35	 0	
 606	 2.11873	 2.81649	 0.31701	1.000	 35	 0	
 607	 3.09393	 2.92872	 0.33886	1.000	 35	 0	
 608	-11.27210	 3.89864	 0.33350	1.000	 35	 0	
 609	 5.96371	 2.84276	 0.34997	1.000	 35	 0	
 610	 6.97340	 2.90472	 0.34694	1.000	 35	 0	
 611	 8.00189	 2.91584	 0.34453	1.000	 35	 0	
 612	 8.97498	 2.85047	 0.35572	1.000	 35	 0	
 613	 9.97054	 2.91080	 0.35435	1.000	 35	 0	
 614	 11.01480	 3.00556	 0.29196	1.000	 35	 0	
 615	-11.71020	 2.87559	 0.31916	1.000	 35	 0	
 616	-4.89808	 3.84088	 0.35746	1.000	 35	 0	
 617	-2.73811	 2.39787	-0.35502	1.000	 35	 0	
 618	-10.31430	 4.02608	 0.33285	1.000	 35	 0	
 619	-9.78604	 3.03904	 0.31007	1.000	 35	 0	
 620	-8.89656	 2.74564	 0.36238	1.000	 35	 0	
 621	-0.55884	 4.04218	 0.32672	1.000	 35	 0	
 622	 0.43888	 4.02379	 0.33349	1.000	 35	 0	
 623	 1.52050	 3.95039	 0.32181	1.000	 35	 0	
 624	 3.59898	 4.04279	 0.32248	1.000	 35	 0	
 625	 4.16225	 5.55120	-0.33882	1.000	 35	 0	
 626	 4.54662	 3.94953	 0.31408	1.000	 35	 0	
 627	 4.77481	 5.06310	 0.34618	1.000	 35	 0	
 628	 1.95804	 4.49033	-0.33684	1.000	 35	 0	
 629	 5.57381	 3.93310	 0.32253	1.000	 35	 0	
 630	 0.98747	 4.50501	-0.33684	1.000	 35	 0	
 631	-10.37580	 5.02487	 0.36217	1.000	 35	 0	
 632	-4.54814	 3.39740	-0.34082	1.000	 35	 0	
 633	 6.55371	 3.93518	 0.33999	1.000	 35	 0	
 634	 7.53363	 3.88874	 0.35504	1.000	 35	 0	
 635	-2.99213	 4.54983	-0.34799	1.000	 35	 0	
 636	 8.57827	 3.85688	 0.35910	1.000	 35	 0	
 637	 9.59293	 3.95305	 0.34114	1.000	 35	 0	
 638	-9.05234	 3.98298	 0.31946	1.000	 35	 0	
 639	-7.76188	 4.05712	 0.35509	1.000	 35	 0	
 640	 1.92459	 3.46059	-0.33491	1.000	 35	 0	
 641	-2.65338	 4.05018	 0.33374	1.000	 35	 0	
 642	 0.19229	 2.99980	 0.34148	1.000	 35	 0	
 643	-1.62432	 4.02293	 0.35809	1.000	 35	 0	