ITEM: TIMESTEP
0
ITEM: BOX BOUNDS pp pp ff
-1.18930200e+01	 1.18930200e+01	
-1.18930200e+01	 1.18930200e+01	
-1.10000000e+00	 1.10000000e+00	
ITEM: NUMBER OF ATOMS
1058
ITEM: ATOMS index x y z diameter charge species
   0	 3.43382000e+00	-9.23630000e-01	-3.12290000e-01	1.000	 35	 0	
   1	 4.48721000e+00	-1.09072000e+00	-3.38330000e-01	1.000	 35	 0	
   2	 5.53893000e+00	-1.00102000e+00	-3.30100000e-01	1.000	 35	 0	
   3	 6.56645000e+00	-9.47740000e-01	-3.17820000e-01	1.000	 35	 0	
   4	 7.57458000e+00	-9.91030000e-01	-3.23750000e-01	1.000	 35	 0	
   5	 8.66463000e+00	-9.20930000e-01	-3.25680000e-01	1.000	 35	 0	
   6	 9.63179000e+00	-1.07696000e+00	-3.34890000e-01	1.000	 35	 0	
   7	 1.06777000e+01	-1.11129000e+00	-3.38210000e-01	1.000	 35	 0	
   8	 1.16604000e+01	-1.03575000e+00	-2.99900000e-01	1.000	 35	 0	
   9	-1.11544000e+01	-1.06102000e+00	-3.10990000e-01	1.000	 35	 0	
  10	-1.01231000e+01	-9.71760000e-01	-3.50970000e-01	1.000	 35	 0	
  11	-9.01367000e+00	-9.68440000e-01	-3.27080000e-01	1.000	 35	 0	
  12	-8.01767000e+00	-8.97430000e-01	-3.43780000e-01	1.000	 35	 0	
  13	-6.91844000e+00	-9.95090000e-01	-3.54190000e-01	1.000	 35	 0	
  14	-5.86098000e+00	-9.41860000e-01	-3.49050000e-01	1.000	 35	 0	
  15	-4.82841000e+00	-9.26260000e-01	-3.58250000e-01	1.000	 35	 0	
  16	-3.82108000e+00	-9.41050000e-01	-3.47070000e-01	1.000	 35	 0	
  17	-2.78779000e+00	-9.85330000e-01	-3.31270000e-01	1.000	 35	 0	
  18	-1.81766000e+00	-9.91950000e-01	-3.23090000e-01	1.000	 35	 0	
  19	-8.11750000e-01	-9.12280000e-01	-3.49410000e-01	1.000	 35	 0	
  20	 3.08730000e-01	-8.36840000e-01	-3.62670000e-01	1.000	 35	 0	
  21	 1.43634000e+00	-9.26290000e-01	-3.55920000e-01	1.000	 35	 0	
  22	 2.41506000e+00	-8.78500000e-01	-3.29540000e-01	1.000	 35	 0	
  23	 4.06955000e+00	 1.40020000e-01	-3.09630000e-01	1.000	 35	 0	
  24	 5.07532000e+00	 4.13900000e-02	-3.41440000e-01	1.000	 35	 0	
  25	 6.03424000e+00	 5.67700000e-02	-3.19610000e-01	1.000	 35	 0	
  26	 7.07121000e+00	 5.82400000e-02	-3.15840000e-01	1.000	 35	 0	
  27	 8.13885000e+00	 2.75700000e-02	-2.98380000e-01	1.000	 35	 0	
  28	 9.20260000e+00	 1.79400000e-02	-3.49610000e-01	1.000	 35	 0	
  29	 1.01529000e+01	-4.28500000e-02	-3.39960000e-01	1.000	 35	 0	
  30	 1.12277000e+01	-1.15930000e-01	-3.47220000e-01	1.000	 35	 0	
  31	-1.16040000e+01	-7.29100000e-02	-3.55830000e-01	1.000	 35	 0	
  32	-1.05198000e+01	 9.19000000e-03	-3.31360000e-01	1.000	 35	 0	
  33	-9.53626000e+00	 5.97000000e-02	-3.35960000e-01	1.000	 35	 0	
  34	-8.57230000e+00	 1.02310000e-01	-3.42280000e-01	1.000	 35	 0	
  35	-7.57912000e+00	 1.17240000e-01	-3.42260000e-01	1.000	 35	 0	
  36	-6.51352000e+00	 1.19000000e-01	-3.59220000e-01	1.000	 35	 0	
  37	-5.48414000e+00	 1.82010000e-01	-3.17520000e-01	1.000	 35	 0	
  38	-4.46146000e+00	 1.00460000e-01	-3.51340000e-01	1.000	 35	 0	
  39	-3.39629000e+00	 6.96200000e-02	-3.69320000e-01	1.000	 35	 0	
  40	-2.31676000e+00	 7.53300000e-02	-3.29680000e-01	1.000	 35	 0	
  41	-1.26934000e+00	 1.20610000e-01	-3.19410000e-01	1.000	 35	 0	
  42	-3.20480000e-01	 1.16590000e-01	-3.51750000e-01	1.000	 35	 0	
  43	 8.65880000e-01	 9.19600000e-02	-3.66330000e-01	1.000	 35	 0	
  44	 1.91682000e+00	 8.86600000e-02	-3.28160000e-01	1.000	 35	 0	
  45	 2.97120000e+00	 1.20770000e-01	-3.44260000e-01	1.000	 35	 0	
  46	 4.56111000e+00	 1.03440000e+00	-3.29350000e-01	1.000	 35	 0	
  47	 5.51793000e+00	 1.09194000e+00	-3.28550000e-01	1.000	 35	 0	
  48	 6.61760000e+00	 1.06730000e+00	-3.40100000e-01	1.000	 35	 0	
  49	 7.65318000e+00	 1.09611000e+00	-3.42840000e-01	1.000	 35	 0	
  50	 8.63755000e+00	 1.11726000e+00	-3.46870000e-01	1.000	 35	 0	
  51	 9.67238000e+00	 1.00265000e+00	-3.50130000e-01	1.000	 35	 0	
  52	 1.07195000e+01	 9.43200000e-01	-3.51610000e-01	1.000	 35	 0	
  53	 1.17301000e+01	 9.26770000e-01	-3.24610000e-01	1.000	 35	 0	
  54	-1.10496000e+01	 1.08236000e+00	-3.00740000e-01	1.000	 35	 0	
  55	-1.00074000e+01	 1.07179000e+00	-3.14660000e-01	1.000	 35	 0	
  56	-8.98445000e+00	 1.15327000e+00	-2.92060000e-01	1.000	 35	 0	
  57	-7.94316000e+00	 1.09932000e+00	-3.60790000e-01	1.000	 35	 0	
  58	-6.95086000e+00	 1.15185000e+00	-3.44980000e-01	1.000	 35	 0	
  59	-5.86819000e+00	 1.13809000e+00	-3.36320000e-01	1.000	 35	 0	
  60	-4.84300000e+00	 1.14516000e+00	-3.40090000e-01	1.000	 35	 0	
  61	-3.80145000e+00	 1.09282000e+00	-3.58770000e-01	1.000	 35	 0	
  62	-2.76994000e+00	 1.12127000e+00	-3.43360000e-01	1.000	 35	 0	
  63	-1.77414000e+00	 1.11991000e+00	-3.31260000e-01	1.000	 35	 0	
  64	-7.47110000e-01	 1.20097000e+00	-3.53260000e-01	1.000	 35	 0	
  65	 2.12880000e-01	 1.11861000e+00	-3.28800000e-01	1.000	 35	 0	
  66	 1.37580000e+00	 1.12007000e+00	-3.59900000e-01	1.000	 35	 0	
  67	 2.42801000e+00	 1.15991000e+00	-3.19250000e-01	1.000	 35	 0	
  68	 3.59333000e+00	 1.10726000e+00	-3.46300000e-01	1.000	 35	 0	
  69	 3.96225000e+00	 2.06854000e+00	-3.26460000e-01	1.000	 35	 0	
  70	 5.01673000e+00	 2.09077000e+00	-3.55870000e-01	1.000	 35	 0	
  71	 6.04265000e+00	 2.08875000e+00	-3.31770000e-01	1.000	 35	 0	
  72	 7.09117000e+00	 2.06686000e+00	-3.50800000e-01	1.000	 35	 0	
  73	 8.14452000e+00	 2.08676000e+00	-3.77100000e-01	1.000	 35	 0	
  74	 9.18309000e+00	 2.13674000e+00	-3.62380000e-01	1.000	 35	 0	
  75	 1.01764000e+01	 2.02960000e+00	-3.55070000e-01	1.000	 35	 0	
  76	 1.12430000e+01	 2.05948000e+00	-3.32700000e-01	1.000	 35	 0	
  77	-1.15097000e+01	 2.04776000e+00	-3.41450000e-01	1.000	 35	 0	
  78	-1.04640000e+01	 2.14785000e+00	-3.24830000e-01	1.000	 35	 0	
  79	-9.43657000e+00	 2.18368000e+00	-3.37440000e-01	1.000	 35	 0	
  80	-8.35453000e+00	 2.10401000e+00	-3.43470000e-01	1.000	 35	 0	
  81	-7.37893000e+00	 2.16570000e+00	-3.23760000e-01	1.000	 35	 0	
  82	-6.37051000e+00	 2.13986000e+00	-3.44450000e-01	1.000	 35	 0	
  83	-5.34479000e+00	 2.08666000e+00	-3.76390000e-01	1.000	 35	 0	
  84	-4.26772000e+00	 2.13723000e+00	-3.61470000e-01	1.000	 35	 0	
  85	-3.24332000e+00	 2.12741000e+00	-3.76050000e-01	1.000	 35	 0	
  86	-2.17820000e+00	 2.11754000e+00	-3.41170000e-01	1.000	 35	 0	
  87	-1.21458000e+00	 2.17589000e+00	-3.68190000e-01	1.000	 35	 0	
  88	-1.72250000e-01	 2.08171000e+00	-3.47520000e-01	1.000	 35	 0	
  89	 9.42420000e-01	 2.18393000e+00	-3.65690000e-01	1.000	 35	 0	
  90	 1.91675000e+00	 2.23751000e+00	-3.44600000e-01	1.000	 35	 0	
  91	 2.97910000e+00	 2.10868000e+00	-3.53180000e-01	1.000	 35	 0	
  92	 3.48259000e+00	 3.12678000e+00	-3.71020000e-01	1.000	 35	 0	
  93	 4.49316000e+00	 3.07411000e+00	-3.43290000e-01	1.000	 35	 0	
  94	 5.57401000e+00	 3.14285000e+00	-3.17030000e-01	1.000	 35	 0	
  95	 6.56089000e+00	 3.04162000e+00	-3.70940000e-01	1.000	 35	 0	
  96	 7.58562000e+00	 3.05421000e+00	-3.55020000e-01	1.000	 35	 0	
  97	 8.65849000e+00	 3.08505000e+00	-3.40530000e-01	1.000	 35	 0	
  98	 9.67555000e+00	 3.04640000e+00	-3.60370000e-01	1.000	 35	 0	
  99	 1.07595000e+01	 3.04054000e+00	-3.44610000e-01	1.000	 35	 0	
 100	 1.17778000e+01	 3.10653000e+00	-3.47210000e-01	1.000	 35	 0	
 101	-1.08116000e+01	 3.23432000e+00	-3.50640000e-01	1.000	 35	 0	
 102	-9.81522000e+00	 3.22503000e+00	-3.45620000e-01	1.000	 35	 0	
 103	-8.87447000e+00	 3.15041000e+00	-3.08080000e-01	1.000	 35	 0	
 104	-7.82577000e+00	 3.17557000e+00	-3.40730000e-01	1.000	 35	 0	
 105	-6.83165000e+00	 3.19464000e+00	-3.16710000e-01	1.000	 35	 0	
 106	-5.91357000e+00	 3.13949000e+00	-3.48140000e-01	1.000	 35	 0	
 107	-4.89603000e+00	 3.09927000e+00	-3.46980000e-01	1.000	 35	 0	
 108	-3.89696000e+00	 3.12315000e+00	-3.59310000e-01	1.000	 35	 0	
 109	-2.78328000e+00	 3.17285000e+00	-3.46490000e-01	1.000	 35	 0	
 110	-1.70922000e+00	 3.19741000e+00	-3.42120000e-01	1.000	 35	 0	
 111	-6.27390000e-01	 3.20858000e+00	-3.43720000e-01	1.000	 35	 0	
 112	 4.06270000e-01	 3.15454000e+00	-3.47380000e-01	1.000	 35	 0	
 113	 1.45275000e+00	 3.27946000e+00	-3.53850000e-01	1.000	 35	 0	
 114	 2.44972000e+00	 3.18553000e+00	-3.19210000e-01	1.000	 35	 0	
 115	 4.03016000e+00	 4.09168000e+00	-3.64440000e-01	1.000	 35	 0	
 116	 5.15148000e+00	 4.20052000e+00	-3.42090000e-01	1.000	 35	 0	
 117	 6.15560000e+00	 4.10984000e+00	-3.36830000e-01	1.000	 35	 0	
 118	 7.14310000e+00	 4.13102000e+00	-3.35150000e-01	1.000	 35	 0	
 119	 8.12507000e+00	 4.10647000e+00	-3.48060000e-01	1.000	 35	 0	
 120	 9.16848000e+00	 4.12116000e+00	-3.44220000e-01	1.000	 35	 0	
 121	 1.02200000e+01	 4.13769000e+00	-3.30720000e-01	1.000	 35	 0	
 122	 1.12785000e+01	 4.16819000e+00	-3.49530000e-01	1.000	 35	 0	
 123	-1.14551000e+01	 4.20527000e+00	-3.59220000e-01	1.000	 35	 0	
 124	-1.03768000e+01	 4.19583000e+00	-3.51500000e-01	1.000	 35	 0	
 125	-9.38281000e+00	 4.11583000e+00	-3.42270000e-01	1.000	 35	 0	
 126	-8.40945000e+00	 4.17990000e+00	-3.11040000e-01	1.000	 35	 0	
 127	-7.39124000e+00	 4.20682000e+00	-3.54670000e-01	1.000	 35	 0	
 128	-6.37982000e+00	 4.18281000e+00	-3.53090000e-01	1.000	 35	 0	
 129	-5.41829000e+00	 4.18391000e+00	-3.49710000e-01	1.000	 35	 0	
 130	-4.41211000e+00	 4.20244000e+00	-3.23100000e-01	1.000	 35	 0	
 131	-3.38432000e+00	 4.16992000e+00	-3.43360000e-01	1.000	 35	 0	
 132	-2.29214000e+00	 4.18743000e+00	-3.50470000e-01	1.000	 35	 0	
 133	-1.13288000e+00	 4.21133000e+00	-3.53420000e-01	1.000	 35	 0	
 134	-1.51670000e-01	 4.27789000e+00	-3.24310000e-01	1.000	 35	 0	
 135	 9.04650000e-01	 4.23550000e+00	-3.19800000e-01	1.000	 35	 0	
 136	 1.94972000e+00	 4.17275000e+00	-3.26330000e-01	1.000	 35	 0	
 137	 2.96132000e+00	 4.09217000e+00	-3.27590000e-01	1.000	 35	 0	
 138	 4.58886000e+00	 5.21424000e+00	-3.26410000e-01	1.000	 35	 0	
 139	 5.57394000e+00	 5.16668000e+00	-3.24330000e-01	1.000	 35	 0	
 140	 6.61692000e+00	 5.14118000e+00	-3.46640000e-01	1.000	 35	 0	
 141	 7.58835000e+00	 5.18763000e+00	-3.39140000e-01	1.000	 35	 0	
 142	 8.64404000e+00	 5.17165000e+00	-3.35120000e-01	1.000	 35	 0	
 143	 9.69033000e+00	 5.12987000e+00	-3.53280000e-01	1.000	 35	 0	
 144	 1.07775000e+01	 5.15061000e+00	-3.50300000e-01	1.000	 35	 0	
 145	 1.17691000e+01	 5.14276000e+00	-3.44400000e-01	1.000	 35	 0	
 146	-1.09025000e+01	 5.15360000e+00	-3.51670000e-01	1.000	 35	 0	
 147	-9.82445000e+00	 5.22821000e+00	-3.60200000e-01	1.000	 35	 0	
 148	-8.84976000e+00	 5.24782000e+00	-3.49680000e-01	1.000	 35	 0	
 149	-7.89646000e+00	 5.18005000e+00	-3.37020000e-01	1.000	 35	 0	
 150	-6.90407000e+00	 5.30188000e+00	-3.24490000e-01	1.000	 35	 0	
 151	-5.89298000e+00	 5.19367000e+00	-3.57430000e-01	1.000	 35	 0	
 152	-4.81540000e+00	 5.28079000e+00	-3.16570000e-01	1.000	 35	 0	
 153	-3.74105000e+00	 5.19810000e+00	-3.52530000e-01	1.000	 35	 0	
 154	-2.70791000e+00	 5.16791000e+00	-3.39270000e-01	1.000	 35	 0	
 155	-1.62392000e+00	 5.14307000e+00	-3.26290000e-01	1.000	 35	 0	
 156	-6.85010000e-01	 5.29451000e+00	-3.35230000e-01	1.000	 35	 0	
 157	 3.69700000e-01	 5.38092000e+00	-3.48450000e-01	1.000	 35	 0	
 158	 1.38715000e+00	 5.22485000e+00	-3.22600000e-01	1.000	 35	 0	
 159	 2.53649000e+00	 5.14194000e+00	-3.48350000e-01	1.000	 35	 0	
 160	 3.58396000e+00	 5.23178000e+00	-3.36340000e-01	1.000	 35	 0	
 161	 4.04696000e+00	 6.28563000e+00	-3.25170000e-01	1.000	 35	 0	
 162	 5.11378000e+00	 6.19034000e+00	-3.40630000e-01	1.000	 35	 0	
 163	 6.14979000e+00	 6.26794000e+00	-3.69640000e-01	1.000	 35	 0	
 164	 7.29196000e+00	 6.22840000e+00	-3.43620000e-01	1.000	 35	 0	
 165	 8.34733000e+00	 6.23589000e+00	-3.45390000e-01	1.000	 35	 0	
 166	 9.46519000e+00	 6.22559000e+00	-3.34400000e-01	1.000	 35	 0	
 167	 1.04266000e+01	 6.18736000e+00	-3.48070000e-01	1.000	 35	 0	
 168	 1.14057000e+01	 6.16869000e+00	-3.25490000e-01	1.000	 35	 0	
 169	-1.13683000e+01	 6.15207000e+00	-3.78450000e-01	1.000	 35	 0	
 170	-1.04082000e+01	 6.17124000e+00	-3.49500000e-01	1.000	 35	 0	
 171	-9.45198000e+00	 6.28148000e+00	-3.03970000e-01	1.000	 35	 0	
 172	-8.33813000e+00	 6.21050000e+00	-3.24600000e-01	1.000	 35	 0	
 173	-7.35890000e+00	 6.32908000e+00	-3.40660000e-01	1.000	 35	 0	
 174	-6.24165000e+00	 6.40654000e+00	-3.53050000e-01	1.000	 35	 0	
 175	-5.23180000e+00	 6.37403000e+00	-3.54480000e-01	1.000	 35	 0	
 176	-4.28669000e+00	 6.24573000e+00	-3.44670000e-01	1.000	 35	 0	
 177	-3.27866000e+00	 6.15289000e+00	-3.45780000e-01	1.000	 35	 0	
 178	-2.22965000e+00	 6.28603000e+00	-3.64270000e-01	1.000	 35	 0	
 179	-1.19236000e+00	 6.24721000e+00	-3.29770000e-01	1.000	 35	 0	
 180	-1.47950000e-01	 6.39044000e+00	-3.23950000e-01	1.000	 35	 0	
 181	 1.00167000e+00	 6.32981000e+00	-3.35640000e-01	1.000	 35	 0	
 182	 1.97996000e+00	 6.27765000e+00	-3.57760000e-01	1.000	 35	 0	
 183	 3.00253000e+00	 6.16598000e+00	-3.28980000e-01	1.000	 35	 0	
 184	 3.49328000e+00	 7.23872000e+00	-3.48700000e-01	1.000	 35	 0	
 185	 4.51497000e+00	 7.26000000e+00	-3.46260000e-01	1.000	 35	 0	
 186	 5.60953000e+00	 7.30879000e+00	-3.63050000e-01	1.000	 35	 0	
 187	 6.67683000e+00	 7.21798000e+00	-3.17960000e-01	1.000	 35	 0	
 188	 7.81319000e+00	 7.30524000e+00	-3.38440000e-01	1.000	 35	 0	
 189	 8.83751000e+00	 7.31544000e+00	-3.70430000e-01	1.000	 35	 0	
 190	 9.83320000e+00	 7.23782000e+00	-3.29970000e-01	1.000	 35	 0	
 191	 1.08281000e+01	 7.23882000e+00	-3.41120000e-01	1.000	 35	 0	
 192	 1.18557000e+01	 7.14501000e+00	-3.23960000e-01	1.000	 35	 0	
 193	-1.09276000e+01	 7.19176000e+00	-3.25280000e-01	1.000	 35	 0	
 194	-9.84034000e+00	 7.37075000e+00	-3.45750000e-01	1.000	 35	 0	
 195	-8.84254000e+00	 7.25144000e+00	-3.18290000e-01	1.000	 35	 0	
 196	-7.79606000e+00	 7.34601000e+00	-3.46230000e-01	1.000	 35	 0	
 197	-6.67352000e+00	 7.42546000e+00	-3.58390000e-01	1.000	 35	 0	
 198	-5.69080000e+00	 7.45410000e+00	-3.47390000e-01	1.000	 35	 0	
 199	-4.71992000e+00	 7.35403000e+00	-3.51460000e-01	1.000	 35	 0	
 200	-3.65997000e+00	 7.30537000e+00	-3.59390000e-01	1.000	 35	 0	
 201	-2.66742000e+00	 7.29771000e+00	-3.47020000e-01	1.000	 35	 0	
 202	-1.68028000e+00	 7.30776000e+00	-3.44390000e-01	1.000	 35	 0	
 203	-6.28240000e-01	 7.36595000e+00	-3.71010000e-01	1.000	 35	 0	
 204	 4.36870000e-01	 7.32473000e+00	-3.33340000e-01	1.000	 35	 0	
 205	 1.45849000e+00	 7.29029000e+00	-3.26930000e-01	1.000	 35	 0	
 206	 2.48053000e+00	 7.31147000e+00	-3.55370000e-01	1.000	 35	 0	
 207	 3.99668000e+00	 8.21109000e+00	-3.48370000e-01	1.000	 35	 0	
 208	 5.09363000e+00	 8.25457000e+00	-3.55970000e-01	1.000	 35	 0	
 209	 6.14819000e+00	 8.36710000e+00	-3.39570000e-01	1.000	 35	 0	
 210	 7.18225000e+00	 8.22515000e+00	-3.26870000e-01	1.000	 35	 0	
 211	 8.26628000e+00	 8.27695000e+00	-3.44520000e-01	1.000	 35	 0	
 212	 9.26716000e+00	 8.34817000e+00	-3.07280000e-01	1.000	 35	 0	
 213	 1.03036000e+01	 8.34594000e+00	-3.28170000e-01	1.000	 35	 0	
 214	 1.13199000e+01	 8.30046000e+00	-3.11560000e-01	1.000	 35	 0	
 215	-1.14019000e+01	 8.28970000e+00	-3.32010000e-01	1.000	 35	 0	
 216	-1.03582000e+01	 8.27855000e+00	-3.47630000e-01	1.000	 35	 0	
 217	-9.35274000e+00	 8.38984000e+00	-3.35280000e-01	1.000	 35	 0	
 218	-8.32975000e+00	 8.29908000e+00	-3.64850000e-01	1.000	 35	 0	
 219	-7.18938000e+00	 8.33688000e+00	-3.47040000e-01	1.000	 35	 0	
 220	-6.19683000e+00	 8.42388000e+00	-3.27910000e-01	1.000	 35	 0	
 221	-5.14650000e+00	 8.45566000e+00	-3.21850000e-01	1.000	 35	 0	
 222	-4.15583000e+00	 8.39848000e+00	-3.55820000e-01	1.000	 35	 0	
 223	-3.17064000e+00	 8.37114000e+00	-3.44580000e-01	1.000	 35	 0	
 224	-2.13095000e+00	 8.35273000e+00	-3.30340000e-01	1.000	 35	 0	
 225	-1.08478000e+00	 8.36179000e+00	-3.41270000e-01	1.000	 35	 0	
 226	-1.69100000e-02	 8.35716000e+00	-3.50030000e-01	1.000	 35	 0	
 227	 9.87740000e-01	 8.43429000e+00	-3.43850000e-01	1.000	 35	 0	
 228	 1.97631000e+00	 8.35319000e+00	-3.47100000e-01	1.000	 35	 0	
 229	 3.01272000e+00	 8.32269000e+00	-3.51180000e-01	1.000	 35	 0	
 230	 3.67810000e+00	 9.36318000e+00	-3.35700000e-01	1.000	 35	 0	
 231	 4.69674000e+00	 9.37897000e+00	-3.50070000e-01	1.000	 35	 0	
 232	 5.70674000e+00	 9.35874000e+00	-3.40530000e-01	1.000	 35	 0	
 233	 6.74747000e+00	 9.40379000e+00	-3.27090000e-01	1.000	 35	 0	
 234	 7.85401000e+00	 9.37563000e+00	-3.21240000e-01	1.000	 35	 0	
 235	 8.85112000e+00	 9.45025000e+00	-3.42900000e-01	1.000	 35	 0	
 236	 9.83346000e+00	 9.42760000e+00	-3.45780000e-01	1.000	 35	 0	
 237	 1.09027000e+01	 9.34427000e+00	-3.75010000e-01	1.000	 35	 0	
 238	-1.18699000e+01	 9.38790000e+00	-3.64520000e-01	1.000	 35	 0	
 239	-1.08908000e+01	 9.32645000e+00	-3.47600000e-01	1.000	 35	 0	
 240	-9.82620000e+00	 9.44229000e+00	-3.56520000e-01	1.000	 35	 0	
 241	-8.81734000e+00	 9.37746000e+00	-3.29110000e-01	1.000	 35	 0	
 242	-7.72187000e+00	 9.30440000e+00	-3.39110000e-01	1.000	 35	 0	
 243	-6.65272000e+00	 9.39728000e+00	-3.40950000e-01	1.000	 35	 0	
 244	-5.62791000e+00	 9.47416000e+00	-3.53800000e-01	1.000	 35	 0	
 245	-4.53787000e+00	 9.50728000e+00	-3.58880000e-01	1.000	 35	 0	
 246	-3.52931000e+00	 9.39659000e+00	-3.44390000e-01	1.000	 35	 0	
 247	-2.53481000e+00	 9.34882000e+00	-3.50820000e-01	1.000	 35	 0	
 248	-1.54386000e+00	 9.41432000e+00	-3.30340000e-01	1.000	 35	 0	
 249	-5.48070000e-01	 9.44417000e+00	-3.29280000e-01	1.000	 35	 0	
 250	 5.01580000e-01	 9.45471000e+00	-3.34000000e-01	1.000	 35	 0	
 251	 1.54393000e+00	 9.44637000e+00	-3.40240000e-01	1.000	 35	 0	
 252	 2.60907000e+00	 9.37365000e+00	-3.44490000e-01	1.000	 35	 0	
 253	 4.30467000e+00	 1.04799000e+01	-3.22300000e-01	1.000	 35	 0	
 254	 5.32577000e+00	 1.04855000e+01	-3.35710000e-01	1.000	 35	 0	
 255	 6.30008000e+00	 1.05362000e+01	-3.50560000e-01	1.000	 35	 0	
 256	 7.28871000e+00	 1.04442000e+01	-3.58930000e-01	1.000	 35	 0	
 257	 8.32971000e+00	 1.04539000e+01	-3.60180000e-01	1.000	 35	 0	
 258	 9.37658000e+00	 1.05361000e+01	-3.53200000e-01	1.000	 35	 0	
 259	 1.03620000e+01	 1.03933000e+01	-3.09820000e-01	1.000	 35	 0	
 260	 1.14388000e+01	 1.04737000e+01	-3.50850000e-01	1.000	 35	 0	
 261	-1.12746000e+01	 1.04171000e+01	-2.88900000e-01	1.000	 35	 0	
 262	-1.02236000e+01	 1.04055000e+01	-3.57020000e-01	1.000	 35	 0	
 263	-9.26584000e+00	 1.04025000e+01	-3.37660000e-01	1.000	 35	 0	
 264	-8.26258000e+00	 1.03471000e+01	-3.34240000e-01	1.000	 35	 0	
 265	-7.17904000e+00	 1.03827000e+01	-3.67130000e-01	1.000	 35	 0	
 266	-6.15761000e+00	 1.04817000e+01	-3.55500000e-01	1.000	 35	 0	
 267	-5.14037000e+00	 1.04722000e+01	-3.47660000e-01	1.000	 35	 0	
 268	-4.11022000e+00	 1.03859000e+01	-3.21030000e-01	1.000	 35	 0	
 269	-3.08301000e+00	 1.04329000e+01	-3.57020000e-01	1.000	 35	 0	
 270	-2.06068000e+00	 1.05405000e+01	-3.49980000e-01	1.000	 35	 0	
 271	-9.97200000e-01	 1.04930000e+01	-3.37700000e-01	1.000	 35	 0	
 272	 3.31300000e-02	 1.04376000e+01	-3.44300000e-01	1.000	 35	 0	
 273	 1.05332000e+00	 1.04741000e+01	-3.39010000e-01	1.000	 35	 0	
 274	 2.08535000e+00	 1.04139000e+01	-3.46000000e-01	1.000	 35	 0	
 275	 3.24437000e+00	 1.03926000e+01	-3.51210000e-01	1.000	 35	 0	
 276	 3.67378000e+00	 1.15508000e+01	-3.34960000e-01	1.000	 35	 0	
 277	 4.67638000e+00	 1.14970000e+01	-3.45220000e-01	1.000	 35	 0	
 278	 5.70250000e+00	 1.15775000e+01	-3.46600000e-01	1.000	 35	 0	
 279	 6.71894000e+00	 1.15261000e+01	-3.62180000e-01	1.000	 35	 0	
 280	 7.79428000e+00	 1.14785000e+01	-3.27160000e-01	1.000	 35	 0	
 281	 8.79878000e+00	 1.15275000e+01	-3.39340000e-01	1.000	 35	 0	
 282	 9.93947000e+00	 1.14960000e+01	-3.35870000e-01	1.000	 35	 0	
 283	 1.09199000e+01	 1.13690000e+01	-3.19490000e-01	1.000	 35	 0	
 284	-1.18221000e+01	 1.14479000e+01	-3.34830000e-01	1.000	 35	 0	
 285	-1.08756000e+01	 1.13585000e+01	-3.45320000e-01	1.000	 35	 0	
 286	-9.80009000e+00	 1.13846000e+01	-3.41370000e-01	1.000	 35	 0	
 287	-8.80333000e+00	 1.14531000e+01	-3.41900000e-01	1.000	 35	 0	
 288	-7.77454000e+00	 1.14701000e+01	-3.64230000e-01	1.000	 35	 0	
 289	-6.72828000e+00	 1.14587000e+01	-3.24620000e-01	1.000	 35	 0	
 290	-5.62727000e+00	 1.14932000e+01	-3.30730000e-01	1.000	 35	 0	
 291	-4.64990000e+00	 1.14164000e+01	-3.11860000e-01	1.000	 35	 0	
 292	-3.66139000e+00	 1.14148000e+01	-3.32110000e-01	1.000	 35	 0	
 293	-2.61638000e+00	 1.14964000e+01	-2.91970000e-01	1.000	 35	 0	
 294	-1.50736000e+00	 1.15421000e+01	-3.40360000e-01	1.000	 35	 0	
 295	-4.96600000e-01	 1.15350000e+01	-3.59120000e-01	1.000	 35	 0	
 296	 6.00350000e-01	 1.14975000e+01	-3.39940000e-01	1.000	 35	 0	
 297	 1.55891000e+00	 1.15088000e+01	-3.19860000e-01	1.000	 35	 0	
 298	 2.61397000e+00	 1.14242000e+01	-3.42620000e-01	1.000	 35	 0	
 299	 4.30031000e+00	-1.12892000e+01	-3.05410000e-01	1.000	 35	 0	
 300	 5.28834000e+00	-1.11371000e+01	-3.43720000e-01	1.000	 35	 0	
 301	 6.30811000e+00	-1.12534000e+01	-3.13150000e-01	1.000	 35	 0	
 302	 7.34485000e+00	-1.12128000e+01	-3.45290000e-01	1.000	 35	 0	
 303	 8.36624000e+00	-1.12811000e+01	-3.26930000e-01	1.000	 35	 0	
 304	 9.38589000e+00	-1.13006000e+01	-3.09190000e-01	1.000	 35	 0	
 305	 1.03873000e+01	-1.12961000e+01	-3.21790000e-01	1.000	 35	 0	
 306	 1.14075000e+01	-1.13586000e+01	-3.08870000e-01	1.000	 35	 0	
 307	-1.13946000e+01	-1.13207000e+01	-3.19230000e-01	1.000	 35	 0	
 308	-1.03706000e+01	-1.13247000e+01	-3.16610000e-01	1.000	 35	 0	
 309	-9.30502000e+00	-1.12846000e+01	-3.31970000e-01	1.000	 35	 0	
 310	-8.30298000e+00	-1.12628000e+01	-2.71850000e-01	1.000	 35	 0	
 311	-7.27293000e+00	-1.12881000e+01	-3.39590000e-01	1.000	 35	 0	
 312	-6.21684000e+00	-1.12517000e+01	-3.52530000e-01	1.000	 35	 0	
 313	-5.10276000e+00	-1.12000000e+01	-3.26310000e-01	1.000	 35	 0	
 314	-4.09870000e+00	-1.12940000e+01	-3.54830000e-01	1.000	 35	 0	
 315	-3.08453000e+00	-1.12635000e+01	-3.47030000e-01	1.000	 35	 0	
 316	-1.98090000e+00	-1.12728000e+01	-3.56100000e-01	1.000	 35	 0	
 317	-9.62860000e-01	-1.12083000e+01	-3.52000000e-01	1.000	 35	 0	
 318	 1.31040000e-01	-1.12273000e+01	-3.34150000e-01	1.000	 35	 0	
 319	 1.20502000e+00	-1.12483000e+01	-3.43380000e-01	1.000	 35	 0	
 320	 2.16757000e+00	-1.13201000e+01	-3.29110000e-01	1.000	 35	 0	
 321	 3.20379000e+00	-1.12421000e+01	-3.23200000e-01	1.000	 35	 0	
 322	 3.69452000e+00	-1.02841000e+01	-3.28570000e-01	1.000	 35	 0	
 323	 4.73110000e+00	-1.01717000e+01	-3.56840000e-01	1.000	 35	 0	
 324	 5.74853000e+00	-1.01864000e+01	-3.48800000e-01	1.000	 35	 0	
 325	 6.78269000e+00	-1.02259000e+01	-3.41280000e-01	1.000	 35	 0	
 326	 7.89363000e+00	-1.01981000e+01	-3.42820000e-01	1.000	 35	 0	
 327	 8.88186000e+00	-1.03316000e+01	-3.59540000e-01	1.000	 35	 0	
 328	 9.87564000e+00	-1.02954000e+01	-3.26690000e-01	1.000	 35	 0	
 329	 1.09127000e+01	-1.03041000e+01	-3.33920000e-01	1.000	 35	 0	
 330	-1.18517000e+01	-1.03033000e+01	-3.53930000e-01	1.000	 35	 0	
 331	-1.08656000e+01	-1.02594000e+01	-3.41580000e-01	1.000	 35	 0	
 332	-9.86657000e+00	-1.03084000e+01	-3.29560000e-01	1.000	 35	 0	
 333	-8.83685000e+00	-1.02079000e+01	-3.19920000e-01	1.000	 35	 0	
 334	-7.80703000e+00	-1.02403000e+01	-3.48990000e-01	1.000	 35	 0	
 335	-6.71549000e+00	-1.01666000e+01	-3.60940000e-01	1.000	 35	 0	
 336	-5.73546000e+00	-1.02230000e+01	-3.41360000e-01	1.000	 35	 0	
 337	-4.67038000e+00	-1.01757000e+01	-3.36700000e-01	1.000	 35	 0	
 338	-3.60975000e+00	-1.02229000e+01	-3.34730000e-01	1.000	 35	 0	
 339	-2.56194000e+00	-1.02279000e+01	-3.51550000e-01	1.000	 35	 0	
 340	-1.52481000e+00	-1.02031000e+01	-3.20420000e-01	1.000	 35	 0	
 341	-4.75890000e-01	-1.02188000e+01	-3.43010000e-01	1.000	 35	 0	
 342	 5.81400000e-01	-1.01768000e+01	-3.46290000e-01	1.000	 35	 0	
 343	 1.59504000e+00	-1.01569000e+01	-3.48950000e-01	1.000	 35	 0	
 344	 2.62384000e+00	-1.01890000e+01	-3.37130000e-01	1.000	 35	 0	
 345	 4.24617000e+00	-9.14730000e+00	-3.48710000e-01	1.000	 35	 0	
 346	 5.27580000e+00	-9.17508000e+00	-3.54920000e-01	1.000	 35	 0	
 347	 6.43625000e+00	-9.15281000e+00	-3.48670000e-01	1.000	 35	 0	
 348	 7.43429000e+00	-9.16765000e+00	-3.41670000e-01	1.000	 35	 0	
 349	 8.46495000e+00	-9.24532000e+00	-3.51390000e-01	1.000	 35	 0	
 350	 9.53467000e+00	-9.31187000e+00	-3.34990000e-01	1.000	 35	 0	
 351	 1.04979000e+01	-9.19455000e+00	-3.36620000e-01	1.000	 35	 0	
 352	 1.14596000e+01	-9.21214000e+00	-3.20730000e-01	1.000	 35	 0	
 353	-1.12606000e+01	-9.20817000e+00	-3.51900000e-01	1.000	 35	 0	
 354	-1.02669000e+01	-9.27887000e+00	-3.10050000e-01	1.000	 35	 0	
 355	-9.18798000e+00	-9.25327000e+00	-3.51750000e-01	1.000	 35	 0	
 356	-8.18057000e+00	-9.19032000e+00	-3.50810000e-01	1.000	 35	 0	
 357	-7.11097000e+00	-9.19282000e+00	-3.39210000e-01	1.000	 35	 0	
 358	-6.04084000e+00	-9.12007000e+00	-3.20260000e-01	1.000	 35	 0	
 359	-5.11572000e+00	-9.16947000e+00	-3.44360000e-01	1.000	 35	 0	
 360	-4.09617000e+00	-9.11830000e+00	-3.51600000e-01	1.000	 35	 0	
 361	-3.08320000e+00	-9.13152000e+00	-3.35550000e-01	1.000	 35	 0	
 362	-2.02886000e+00	-9.09515000e+00	-3.39020000e-01	1.000	 35	 0	
 363	-1.06742000e+00	-9.13745000e+00	-3.70170000e-01	1.000	 35	 0	
 364	-3.04600000e-02	-9.21163000e+00	-3.15210000e-01	1.000	 35	 0	
 365	 1.01464000e+00	-9.14385000e+00	-3.30950000e-01	1.000	 35	 0	
 366	 2.05090000e+00	-9.16130000e+00	-3.28700000e-01	1.000	 35	 0	
 367	 3.18945000e+00	-9.24119000e+00	-3.28980000e-01	1.000	 35	 0	
 368	 3.66217000e+00	-8.13737000e+00	-3.10060000e-01	1.000	 35	 0	
 369	 4.69518000e+00	-8.11919000e+00	-3.30420000e-01	1.000	 35	 0	
 370	 5.88863000e+00	-8.18602000e+00	-3.57390000e-01	1.000	 35	 0	
 371	 6.91359000e+00	-8.16762000e+00	-3.29020000e-01	1.000	 35	 0	
 372	 7.94205000e+00	-8.19098000e+00	-3.45790000e-01	1.000	 35	 0	
 373	 8.97061000e+00	-8.26613000e+00	-3.29930000e-01	1.000	 35	 0	
 374	 1.00059000e+01	-8.25278000e+00	-3.43080000e-01	1.000	 35	 0	
 375	 1.10420000e+01	-8.23012000e+00	-3.54090000e-01	1.000	 35	 0	
 376	-1.17766000e+01	-8.25351000e+00	-3.29960000e-01	1.000	 35	 0	
 377	-1.07786000e+01	-8.22842000e+00	-3.30370000e-01	1.000	 35	 0	
 378	-9.70624000e+00	-8.21022000e+00	-3.35840000e-01	1.000	 35	 0	
 379	-8.70241000e+00	-8.15204000e+00	-3.54710000e-01	1.000	 35	 0	
 380	-7.65783000e+00	-8.17093000e+00	-3.44980000e-01	1.000	 35	 0	
 381	-6.63918000e+00	-8.17313000e+00	-2.97070000e-01	1.000	 35	 0	
 382	-5.63481000e+00	-8.10814000e+00	-3.36960000e-01	1.000	 35	 0	
 383	-4.63011000e+00	-8.10337000e+00	-3.26080000e-01	1.000	 35	 0	
 384	-3.57294000e+00	-8.09168000e+00	-3.35890000e-01	1.000	 35	 0	
 385	-2.55298000e+00	-8.10850000e+00	-3.21580000e-01	1.000	 35	 0	
 386	-1.39880000e+00	-8.12762000e+00	-3.49460000e-01	1.000	 35	 0	
 387	-3.72730000e-01	-8.15514000e+00	-3.53310000e-01	1.000	 35	 0	
 388	 6.10540000e-01	-8.18402000e+00	-3.33210000e-01	1.000	 35	 0	
 389	 1.64113000e+00	-8.13349000e+00	-3.36310000e-01	1.000	 35	 0	
 390	 2.67306000e+00	-8.24124000e+00	-3.26390000e-01	1.000	 35	 0	
 391	 4.21981000e+00	-7.07181000e+00	-3.40760000e-01	1.000	 35	 0	
 392	 5.25974000e+00	-7.10967000e+00	-3.70210000e-01	1.000	 35	 0	
 393	 6.41392000e+00	-7.20545000e+00	-3.42540000e-01	1.000	 35	 0	
 394	 7.41271000e+00	-7.17462000e+00	-3.40820000e-01	1.000	 35	 0	
 395	 8.49438000e+00	-7.26917000e+00	-3.77410000e-01	1.000	 35	 0	
 396	 9.53657000e+00	-7.20504000e+00	-3.31040000e-01	1.000	 35	 0	
 397	 1.05939000e+01	-7.21115000e+00	-3.80560000e-01	1.000	 35	 0	
 398	 1.16371000e+01	-7.23405000e+00	-3.66130000e-01	1.000	 35	 0	
 399	-1.10649000e+01	-7.24829000e+00	-3.62900000e-01	1.000	 35	 0	
 400	-1.00713000e+01	-7.23992000e+00	-3.41030000e-01	1.000	 35	 0	
 401	-9.08384000e+00	-7.15231000e+00	-3.15030000e-01	1.000	 35	 0	
 402	-8.14373000e+00	-7.19391000e+00	-3.33120000e-01	1.000	 35	 0	
 403	-7.04913000e+00	-7.09690000e+00	-3.20660000e-01	1.000	 35	 0	
 404	-6.05444000e+00	-7.08864000e+00	-3.18890000e-01	1.000	 35	 0	
 405	-5.09343000e+00	-7.09358000e+00	-3.52010000e-01	1.000	 35	 0	
 406	-4.03111000e+00	-7.03999000e+00	-3.35930000e-01	1.000	 35	 0	
 407	-2.92577000e+00	-7.04189000e+00	-3.52220000e-01	1.000	 35	 0	
 408	-1.91543000e+00	-7.20281000e+00	-3.46900000e-01	1.000	 35	 0	
 409	-9.08030000e-01	-7.14921000e+00	-3.28310000e-01	1.000	 35	 0	
 410	 4.66400000e-02	-7.11620000e+00	-3.19800000e-01	1.000	 35	 0	
 411	 1.04828000e+00	-7.11800000e+00	-3.39000000e-01	1.000	 35	 0	
 412	 2.08730000e+00	-7.07142000e+00	-3.38130000e-01	1.000	 35	 0	
 413	 3.18790000e+00	-7.19484000e+00	-3.35680000e-01	1.000	 35	 0	
 414	 3.75822000e+00	-6.11911000e+00	-3.58720000e-01	1.000	 35	 0	
 415	 4.76059000e+00	-6.09803000e+00	-3.47280000e-01	1.000	 35	 0	
 416	 5.83751000e+00	-6.06488000e+00	-3.34500000e-01	1.000	 35	 0	
 417	 6.83822000e+00	-6.12282000e+00	-3.56380000e-01	1.000	 35	 0	
 418	 7.88721000e+00	-6.15904000e+00	-3.55750000e-01	1.000	 35	 0	
 419	 8.93541000e+00	-6.21528000e+00	-3.38900000e-01	1.000	 35	 0	
 420	 1.00229000e+01	-6.29477000e+00	-3.62340000e-01	1.000	 35	 0	
 421	 1.10667000e+01	-6.22753000e+00	-3.37380000e-01	1.000	 35	 0	
 422	-1.16970000e+01	-6.24412000e+00	-3.33090000e-01	1.000	 35	 0	
 423	-1.07043000e+01	-6.18074000e+00	-3.43950000e-01	1.000	 35	 0	
 424	-9.62891000e+00	-6.26484000e+00	-3.62970000e-01	1.000	 35	 0	
 425	-8.61605000e+00	-6.13127000e+00	-3.61930000e-01	1.000	 35	 0	
 426	-7.58030000e+00	-6.11453000e+00	-3.40800000e-01	1.000	 35	 0	
 427	-6.55581000e+00	-6.01711000e+00	-3.26310000e-01	1.000	 35	 0	
 428	-5.54197000e+00	-6.06467000e+00	-3.58370000e-01	1.000	 35	 0	
 429	-4.51312000e+00	-6.04867000e+00	-3.47750000e-01	1.000	 35	 0	
 430	-3.50863000e+00	-6.10832000e+00	-3.48970000e-01	1.000	 35	 0	
 431	-2.44664000e+00	-5.96690000e+00	-3.42400000e-01	1.000	 35	 0	
 432	-1.48830000e+00	-6.19293000e+00	-3.54390000e-01	1.000	 35	 0	
 433	-4.47400000e-01	-6.05991000e+00	-3.07800000e-01	1.000	 35	 0	
 434	 6.53530000e-01	-6.01029000e+00	-3.04910000e-01	1.000	 35	 0	
 435	 1.60811000e+00	-6.09092000e+00	-3.47780000e-01	1.000	 35	 0	
 436	 2.72833000e+00	-6.14142000e+00	-3.21050000e-01	1.000	 35	 0	
 437	 4.40893000e+00	-5.13431000e+00	-3.32450000e-01	1.000	 35	 0	
 438	 5.40095000e+00	-5.14249000e+00	-3.55910000e-01	1.000	 35	 0	
 439	 6.39998000e+00	-5.11448000e+00	-3.36450000e-01	1.000	 35	 0	
 440	 7.50430000e+00	-5.16578000e+00	-3.28900000e-01	1.000	 35	 0	
 441	 8.46823000e+00	-5.24528000e+00	-3.28080000e-01	1.000	 35	 0	
 442	 9.50569000e+00	-5.20471000e+00	-3.40370000e-01	1.000	 35	 0	
 443	 1.06474000e+01	-5.24716000e+00	-3.54310000e-01	1.000	 35	 0	