ITEM: TIMESTEP
0
ITEM: BOX BOUNDS pp pp ff
-1.18930200e+01	 1.18930200e+01	
-1.18930200e+01	 1.18930200e+01	
-1.10000000e+00	 1.10000000e+00	
ITEM: NUMBER OF ATOMS
1058
ITEM: ATOMS index x y z diameter charge species
   0	-1.06815000e+01	-1.66023000e+00	-3.35440000e-01	1.000	 35	 0	
   1	-1.41833000e+00	-1.58695000e+00	-3.21420000e-01	1.000	 35	 0	
   2	-8.07926000e+00	-1.29260000e+00	 3.38650000e-01	1.000	 35	 0	
   3	-1.07456000e+01	-7.02590000e-01	-3.16450000e-01	1.000	 35	 0	
   4	-1.16031000e+00	-7.69700000e-02	 3.22250000e-01	1.000	 35	 0	
   5	-9.72133000e+00	-6.18910000e-01	-3.49360000e-01	1.000	 35	 0	
   6	-8.79342000e+00	-6.20420000e-01	-3.20450000e-01	1.000	 35	 0	
   7	-6.89268000e+00	-6.37800000e-01	-3.14950000e-01	1.000	 35	 0	
   8	-5.87985000e+00	-6.40040000e-01	-3.43100000e-01	1.000	 35	 0	
   9	 1.15473000e+01	-1.96570000e-01	 3.29980000e-01	1.000	 35	 0	
  10	-4.92947000e+00	-6.35500000e-01	-3.51060000e-01	1.000	 35	 0	
  11	-3.00565000e+00	-7.36030000e-01	-3.18420000e-01	1.000	 35	 0	
  12	-3.91940000e-01	-1.64045000e+00	-3.51710000e-01	1.000	 35	 0	
  13	 6.08980000e-01	-1.65406000e+00	-3.34720000e-01	1.000	 35	 0	
  14	 1.18642000e+01	 2.77370000e-01	-3.55840000e-01	1.000	 35	 0	
  15	-4.16200000e-02	-6.49750000e-01	-3.36530000e-01	1.000	 35	 0	
  16	-6.71020000e+00	-1.68513000e+00	-3.25390000e-01	1.000	 35	 0	
  17	 4.20666000e+00	-5.48180000e-01	-3.50640000e-01	1.000	 35	 0	
  18	 5.26110000e+00	-6.75590000e-01	-3.39980000e-01	1.000	 35	 0	
  19	 6.31942000e+00	-6.80980000e-01	-3.49190000e-01	1.000	 35	 0	
  20	 7.37953000e+00	-7.53910000e-01	-3.47170000e-01	1.000	 35	 0	
  21	 3.62621000e+00	-1.66486000e+00	-3.27750000e-01	1.000	 35	 0	
  22	-1.17366000e+01	-1.73562000e+00	-3.19390000e-01	1.000	 35	 0	
  23	 2.06664000e+00	-5.71880000e-01	-3.50490000e-01	1.000	 35	 0	
  24	 8.61374000e+00	 1.37851000e+00	-3.54560000e-01	1.000	 35	 0	
  25	 3.13783000e+00	-7.28780000e-01	-3.35500000e-01	1.000	 35	 0	
  26	 1.84552000e+00	-1.09880000e-01	 3.69790000e-01	1.000	 35	 0	
  27	-4.69700000e-02	 1.49931000e+00	-3.59050000e-01	1.000	 35	 0	
  28	 8.71214000e+00	-6.04640000e-01	-3.18790000e-01	1.000	 35	 0	
  29	-7.71627000e+00	 1.36621000e+00	-3.23510000e-01	1.000	 35	 0	
  30	 1.08745000e+01	-6.71970000e-01	-3.45320000e-01	1.000	 35	 0	
  31	 5.61766000e+00	-1.69314000e+00	-3.06890000e-01	1.000	 35	 0	
  32	-7.36566000e+00	 3.91140000e-01	-3.42170000e-01	1.000	 35	 0	
  33	 9.63459000e+00	-1.11780000e-01	 3.54450000e-01	1.000	 35	 0	
  34	-6.43104000e+00	 4.26670000e-01	-3.30630000e-01	1.000	 35	 0	
  35	-5.51306000e+00	 2.99510000e-01	-3.04210000e-01	1.000	 35	 0	
  36	-3.57261000e+00	 3.35710000e-01	-3.35610000e-01	1.000	 35	 0	
  37	-2.63043000e+00	 4.11420000e-01	-3.40250000e-01	1.000	 35	 0	
  38	-1.69814000e+00	 3.46390000e-01	-3.13780000e-01	1.000	 35	 0	
  39	-6.65970000e-01	 3.64840000e-01	-3.31480000e-01	1.000	 35	 0	
  40	 1.44146000e+00	 3.29380000e-01	-3.39270000e-01	1.000	 35	 0	
  41	-7.85480000e+00	-7.35700000e-01	-3.15260000e-01	1.000	 35	 0	
  42	-5.65262000e+00	-1.67625000e+00	-3.57930000e-01	1.000	 35	 0	
  43	 3.51572000e+00	 4.96810000e-01	-3.43590000e-01	1.000	 35	 0	
  44	 4.49954000e+00	 4.00200000e-01	-3.28870000e-01	1.000	 35	 0	
  45	 5.57645000e+00	 3.24540000e-01	-3.51130000e-01	1.000	 35	 0	
  46	-1.00905000e+01	 3.55970000e-01	-3.35350000e-01	1.000	 35	 0	
  47	 7.52230000e+00	 1.40912000e+00	-3.47390000e-01	1.000	 35	 0	
  48	-8.23353000e+00	 1.91215000e+00	 3.39730000e-01	1.000	 35	 0	
  49	-4.76736000e+00	 9.64430000e-01	 3.26470000e-01	1.000	 35	 0	
  50	 1.07278000e+01	 1.41921000e+00	-3.69920000e-01	1.000	 35	 0	
  51	 1.18116000e+01	 1.42012000e+00	-3.49620000e-01	1.000	 35	 0	
  52	-9.18322000e+00	 2.36865000e+00	-3.71820000e-01	1.000	 35	 0	
  53	-1.12692000e+01	 2.43932000e+00	-3.35700000e-01	1.000	 35	 0	
  54	-1.03379000e+01	 1.91998000e+00	 3.21420000e-01	1.000	 35	 0	
  55	-3.76502000e+00	 9.81490000e-01	 3.39490000e-01	1.000	 35	 0	
  56	 2.49881000e+00	 3.17030000e-01	-3.49410000e-01	1.000	 35	 0	
  57	-9.85109000e+00	 1.52670000e+00	-3.44980000e-01	1.000	 35	 0	
  58	 6.80676000e+00	 4.23120000e-01	-3.38210000e-01	1.000	 35	 0	
  59	-6.49206000e+00	 1.41421000e+00	-3.18230000e-01	1.000	 35	 0	
  60	-5.42305000e+00	 1.34235000e+00	-3.39030000e-01	1.000	 35	 0	
  61	-3.25345000e+00	 1.35639000e+00	-3.39060000e-01	1.000	 35	 0	
  62	-6.93062000e+00	 2.42402000e+00	-3.40000000e-01	1.000	 35	 0	
  63	-2.22381000e+00	 1.35922000e+00	-3.50280000e-01	1.000	 35	 0	
  64	-1.11895000e+00	 1.42585000e+00	-3.42200000e-01	1.000	 35	 0	
  65	 7.93606000e+00	 3.24230000e-01	-3.48360000e-01	1.000	 35	 0	
  66	 4.08130000e+00	 1.47526000e+00	-3.24250000e-01	1.000	 35	 0	
  67	-1.09977000e+01	 3.65700000e-01	-3.35580000e-01	1.000	 35	 0	
  68	 9.78614000e+00	-6.15620000e-01	-3.47350000e-01	1.000	 35	 0	
  69	 3.09986000e+00	 1.47097000e+00	-3.41840000e-01	1.000	 35	 0	
  70	 5.03990000e+00	 2.97400000e+00	 3.64370000e-01	1.000	 35	 0	
  71	 5.12649000e+00	 1.30300000e+00	-3.38590000e-01	1.000	 35	 0	
  72	 6.21774000e+00	 1.37273000e+00	-3.28080000e-01	1.000	 35	 0	
  73	 1.35540000e+00	 2.39444000e+00	-3.32230000e-01	1.000	 35	 0	
  74	 2.51875000e+00	 2.41539000e+00	-3.62460000e-01	1.000	 35	 0	
  75	-3.76975000e+00	 2.39589000e+00	-3.24440000e-01	1.000	 35	 0	
  76	 5.60412000e+00	 1.76454000e+00	 3.20200000e-01	1.000	 35	 0	
  77	 3.46879000e+00	 2.53291000e+00	-3.30920000e-01	1.000	 35	 0	
  78	 4.61808000e+00	 2.52680000e+00	-3.58920000e-01	1.000	 35	 0	
  79	 5.66106000e+00	 2.34848000e+00	-3.41970000e-01	1.000	 35	 0	
  80	 7.10034000e+00	 3.45233000e+00	-3.52190000e-01	1.000	 35	 0	
  81	 4.25611000e+00	 9.11860000e-01	 3.62960000e-01	1.000	 35	 0	
  82	 6.72472000e+00	 2.41374000e+00	-3.61000000e-01	1.000	 35	 0	
  83	 9.19870000e+00	 3.06250000e-01	-3.46920000e-01	1.000	 35	 0	
  84	 1.03694000e+01	 2.43474000e+00	-3.20290000e-01	1.000	 35	 0	
  85	 1.14428000e+01	 1.83263000e+00	 3.52340000e-01	1.000	 35	 0	
  86	 1.13566000e+01	 2.41581000e+00	-3.06490000e-01	1.000	 35	 0	
  87	-9.91718000e+00	 3.58282000e+00	-3.64380000e-01	1.000	 35	 0	
  88	-1.01862000e+01	 2.51188000e+00	-3.71850000e-01	1.000	 35	 0	
  89	-7.99690000e+00	 2.51436000e+00	-2.66030000e-01	1.000	 35	 0	
  90	-5.80471000e+00	 2.43528000e+00	-3.26010000e-01	1.000	 35	 0	
  91	 2.03682000e+00	 1.39688000e+00	-3.55110000e-01	1.000	 35	 0	
  92	-6.81945000e+00	 3.95729000e+00	 3.60860000e-01	1.000	 35	 0	
  93	-1.09612000e+01	 3.42706000e+00	-3.53950000e-01	1.000	 35	 0	
  94	 1.18348000e+01	 4.51579000e+00	-3.29610000e-01	1.000	 35	 0	
  95	 3.99375000e+00	 4.56486000e+00	-3.35070000e-01	1.000	 35	 0	
  96	-8.86183000e+00	 3.36863000e+00	-3.39060000e-01	1.000	 35	 0	
  97	-7.78321000e+00	 3.51702000e+00	-3.50830000e-01	1.000	 35	 0	
  98	-6.71616000e+00	 3.40646000e+00	-3.47860000e-01	1.000	 35	 0	
  99	-5.61629000e+00	 3.41384000e+00	-3.37060000e-01	1.000	 35	 0	
 100	-8.13162000e+00	 3.18140000e+00	 3.61960000e-01	1.000	 35	 0	
 101	-3.52953000e+00	 3.47542000e+00	-3.30150000e-01	1.000	 35	 0	
 102	-1.65587000e+00	 2.38814000e+00	-3.53530000e-01	1.000	 35	 0	
 103	 1.01571000e+01	 4.90377000e+00	 3.60970000e-01	1.000	 35	 0	
 104	 9.31859000e+00	 2.41804000e+00	-3.52020000e-01	1.000	 35	 0	
 105	-6.48180000e-01	 2.39759000e+00	-3.33520000e-01	1.000	 35	 0	
 106	-1.46581000e+00	 3.46278000e+00	-3.00440000e-01	1.000	 35	 0	
 107	-3.78970000e-01	 3.42185000e+00	-3.33770000e-01	1.000	 35	 0	
 108	 7.96490000e-01	 3.49501000e+00	-3.28150000e-01	1.000	 35	 0	
 109	 4.04052000e+00	 3.55148000e+00	-3.11630000e-01	1.000	 35	 0	
 110	 5.12244000e+00	 3.48559000e+00	-3.58510000e-01	1.000	 35	 0	
 111	 6.10588000e+00	 3.44056000e+00	-3.21940000e-01	1.000	 35	 0	
 112	-3.91390000e+00	 3.92969000e+00	 3.41080000e-01	1.000	 35	 0	
 113	 8.16316000e+00	 2.36385000e+00	-3.70910000e-01	1.000	 35	 0	
 114	 8.10081000e+00	 3.43442000e+00	-3.42980000e-01	1.000	 35	 0	
 115	-5.79329000e+00	 4.52512000e+00	-3.45970000e-01	1.000	 35	 0	
 116	-1.04941000e+01	 5.61720000e+00	-3.38560000e-01	1.000	 35	 0	
 117	-4.83918000e+00	 4.44980000e+00	-2.96630000e-01	1.000	 35	 0	
 118	-3.89353000e+00	 4.46870000e+00	-3.52160000e-01	1.000	 35	 0	
 119	 1.15527000e+01	 3.97872000e+00	 3.24190000e-01	1.000	 35	 0	
 120	-2.10156000e+00	 4.42797000e+00	-3.33820000e-01	1.000	 35	 0	
 121	 2.95840000e+00	 4.56268000e+00	-3.36720000e-01	1.000	 35	 0	
 122	 2.59206000e+00	 4.06701000e+00	 3.10330000e-01	1.000	 35	 0	
 123	 1.05559000e+01	 3.88205000e+00	 3.28460000e-01	1.000	 35	 0	
 124	 4.97252000e+00	 4.47898000e+00	-3.31160000e-01	1.000	 35	 0	
 125	 5.95844000e+00	 4.41416000e+00	-3.43290000e-01	1.000	 35	 0	
 126	 6.93572000e+00	 4.42296000e+00	-3.15400000e-01	1.000	 35	 0	
 127	 8.77735000e+00	 4.41015000e+00	-3.26310000e-01	1.000	 35	 0	
 128	 9.76614000e+00	 4.47158000e+00	-3.51950000e-01	1.000	 35	 0	
 129	 1.07882000e+01	 4.44615000e+00	-3.12790000e-01	1.000	 35	 0	
 130	-1.09345000e+01	 4.48608000e+00	-3.07270000e-01	1.000	 35	 0	
 131	-9.92154000e+00	 4.61080000e+00	-3.27730000e-01	1.000	 35	 0	
 132	-1.08867000e+01	 1.47448000e+00	-3.54080000e-01	1.000	 35	 0	
 133	-8.85751000e+00	 4.55119000e+00	-3.53580000e-01	1.000	 35	 0	
 134	-7.84064000e+00	 4.65852000e+00	-3.45960000e-01	1.000	 35	 0	
 135	-6.85492000e+00	 4.54551000e+00	-3.37470000e-01	1.000	 35	 0	
 136	 9.58795000e+00	 5.96285000e+00	 3.27360000e-01	1.000	 35	 0	
 137	-2.53636000e+00	 3.40959000e+00	-3.30120000e-01	1.000	 35	 0	
 138	 2.82324000e+00	 5.65967000e+00	-3.47070000e-01	1.000	 35	 0	
 139	 1.42860000e-01	 6.08702000e+00	 3.31870000e-01	1.000	 35	 0	
 140	 6.19838000e+00	 5.46050000e+00	-3.29670000e-01	1.000	 35	 0	
 141	 7.20026000e+00	 5.51139000e+00	-3.42350000e-01	1.000	 35	 0	
 142	 8.21934000e+00	 5.52450000e+00	-3.63570000e-01	1.000	 35	 0	
 143	 9.24918000e+00	 5.41979000e+00	-3.29510000e-01	1.000	 35	 0	
 144	 1.03333000e+01	 5.42502000e+00	-3.23660000e-01	1.000	 35	 0	
 145	 1.12959000e+01	 5.47621000e+00	-3.20070000e-01	1.000	 35	 0	
 146	-1.14755000e+01	 5.57943000e+00	-3.39650000e-01	1.000	 35	 0	
 147	 1.16439000e+01	 5.96906000e+00	 3.63410000e-01	1.000	 35	 0	
 148	-6.14845000e+00	 5.52282000e+00	-3.45530000e-01	1.000	 35	 0	
 149	-2.71831000e+00	 6.56450000e+00	-3.63380000e-01	1.000	 35	 0	
 150	 6.51212000e+00	 7.55141000e+00	-3.28670000e-01	1.000	 35	 0	
 151	-4.78564000e+00	 5.49437000e+00	-3.44500000e-01	1.000	 35	 0	
 152	 1.22297000e+00	 6.02021000e+00	 3.03460000e-01	1.000	 35	 0	
 153	 7.90747000e+00	 4.99389000e+00	 3.20620000e-01	1.000	 35	 0	
 154	-3.71521000e+00	 5.52977000e+00	-3.27160000e-01	1.000	 35	 0	
 155	-2.59207000e+00	 5.50342000e+00	-3.67430000e-01	1.000	 35	 0	
 156	-1.57771000e+00	 5.57593000e+00	-3.36920000e-01	1.000	 35	 0	
 157	-4.11645000e+00	 5.03018000e+00	 3.21610000e-01	1.000	 35	 0	
 158	-6.01300000e-01	 5.54611000e+00	-3.51210000e-01	1.000	 35	 0	
 159	 4.73320000e-01	 5.60230000e+00	-3.44160000e-01	1.000	 35	 0	
 160	 1.75921000e+00	 5.59831000e+00	-3.35790000e-01	1.000	 35	 0	
 161	-7.18719000e+00	 5.55581000e+00	-3.45840000e-01	1.000	 35	 0	
 162	-8.95302000e+00	 6.51892000e+00	-3.35370000e-01	1.000	 35	 0	
 163	-4.15100000e+00	 8.05641000e+00	 3.32740000e-01	1.000	 35	 0	
 164	-8.33498000e+00	 5.52015000e+00	-3.25480000e-01	1.000	 35	 0	
 165	-5.92782000e+00	 6.50191000e+00	-3.31920000e-01	1.000	 35	 0	
 166	-4.88467000e+00	 6.47274000e+00	-3.55550000e-01	1.000	 35	 0	
 167	-3.74623000e+00	 6.62969000e+00	-3.44490000e-01	1.000	 35	 0	
 168	-1.61071000e+00	 6.57742000e+00	-3.49300000e-01	1.000	 35	 0	
 169	 4.17240000e-01	 6.65561000e+00	-3.52330000e-01	1.000	 35	 0	
 170	-6.22030000e-01	 7.72396000e+00	-3.31690000e-01	1.000	 35	 0	
 171	 2.38068000e+00	 6.65826000e+00	-3.57800000e-01	1.000	 35	 0	
 172	 3.46706000e+00	 6.58041000e+00	-3.42250000e-01	1.000	 35	 0	
 173	 9.64642000e+00	 7.52137000e+00	-3.65720000e-01	1.000	 35	 0	
 174	 7.90346000e+00	 6.56593000e+00	-3.36240000e-01	1.000	 35	 0	
 175	 1.00378000e+01	 6.48438000e+00	-3.21630000e-01	1.000	 35	 0	
 176	 1.09950000e+01	 6.43128000e+00	-3.34610000e-01	1.000	 35	 0	
 177	-9.76926000e+00	 5.93656000e+00	 3.47020000e-01	1.000	 35	 0	
 178	-1.08674000e+01	 6.57911000e+00	-3.39760000e-01	1.000	 35	 0	
 179	-8.04689000e+00	 6.99080000e+00	 3.73250000e-01	1.000	 35	 0	
 180	-9.33023000e+00	 5.59011000e+00	-3.34920000e-01	1.000	 35	 0	
 181	-9.88420000e+00	 6.49039000e+00	-3.51610000e-01	1.000	 35	 0	
 182	-8.62576000e+00	 5.99977000e+00	 3.19400000e-01	1.000	 35	 0	
 183	-4.87250000e+00	 7.02132000e+00	 3.43220000e-01	1.000	 35	 0	
 184	-1.00669000e+01	 7.01048000e+00	 3.29750000e-01	1.000	 35	 0	
 185	-1.03191000e+01	 7.59460000e+00	-3.46960000e-01	1.000	 35	 0	
 186	-9.36174000e+00	 7.63473000e+00	-3.28550000e-01	1.000	 35	 0	
 187	-1.17800000e+01	 6.48918000e+00	-3.36900000e-01	1.000	 35	 0	
 188	-7.51294000e+00	 7.58525000e+00	-3.17900000e-01	1.000	 35	 0	
 189	-6.48214000e+00	 7.56833000e+00	-3.23850000e-01	1.000	 35	 0	
 190	-4.53884000e+00	 7.48636000e+00	-3.12720000e-01	1.000	 35	 0	
 191	-3.58742000e+00	 7.64458000e+00	-3.12010000e-01	1.000	 35	 0	
 192	-2.65174000e+00	 7.68574000e+00	-3.61270000e-01	1.000	 35	 0	
 193	-1.65255000e+00	 7.68257000e+00	-3.29240000e-01	1.000	 35	 0	
 194	-4.41881000e+00	 8.60409000e+00	-3.39010000e-01	1.000	 35	 0	
 195	-1.10311000e+01	 7.11055000e+00	 3.42860000e-01	1.000	 35	 0	
 196	-9.87320000e-01	 8.70007000e+00	-2.96470000e-01	1.000	 35	 0	
 197	 3.47148000e+00	 7.64624000e+00	-3.41890000e-01	1.000	 35	 0	
 198	 5.46618000e+00	 7.62016000e+00	-3.41200000e-01	1.000	 35	 0	
 199	 1.52485000e+00	 7.80622000e+00	-3.37270000e-01	1.000	 35	 0	
 200	 7.59823000e+00	 7.64940000e+00	-3.71870000e-01	1.000	 35	 0	
 201	 4.70081000e+00	 6.62665000e+00	-3.24890000e-01	1.000	 35	 0	
 202	-1.15116000e+01	 8.19398000e+00	 3.43420000e-01	1.000	 35	 0	
 203	 4.49392000e+00	 7.70477000e+00	-3.50050000e-01	1.000	 35	 0	
 204	 1.06265000e+01	 7.60903000e+00	-3.60280000e-01	1.000	 35	 0	
 205	 1.15758000e+01	 7.57616000e+00	-3.27620000e-01	1.000	 35	 0	
 206	-1.12794000e+01	 7.64724000e+00	-3.41450000e-01	1.000	 35	 0	
 207	-3.13459000e+00	 8.74148000e+00	-3.47160000e-01	1.000	 35	 0	
 208	-3.53300000e-02	 8.64739000e+00	-3.46860000e-01	1.000	 35	 0	
 209	 8.44391000e+00	 8.11844000e+00	 3.28540000e-01	1.000	 35	 0	
 210	-9.72945000e+00	 1.02707000e+01	 3.25560000e-01	1.000	 35	 0	
 211	 1.98553000e+00	 8.82160000e+00	-3.32370000e-01	1.000	 35	 0	
 212	 2.46924000e+00	 7.76385000e+00	-3.61590000e-01	1.000	 35	 0	
 213	 5.89020000e+00	 8.65462000e+00	-3.28190000e-01	1.000	 35	 0	
 214	 4.85946000e+00	 9.25459000e+00	 3.43270000e-01	1.000	 35	 0	
 215	 2.46310000e+00	 9.79913000e+00	-3.23290000e-01	1.000	 35	 0	
 216	-6.15610000e+00	 8.12673000e+00	 3.11280000e-01	1.000	 35	 0	
 217	 9.07701000e+00	 8.48333000e+00	-3.51860000e-01	1.000	 35	 0	
 218	 3.84778000e+00	 9.28359000e+00	 3.55450000e-01	1.000	 35	 0	
 219	 1.02674000e+01	 8.63605000e+00	-3.65210000e-01	1.000	 35	 0	
 220	 1.14471000e+01	 8.69460000e+00	-3.28540000e-01	1.000	 35	 0	
 221	-1.12721000e+01	 8.69932000e+00	-3.49080000e-01	1.000	 35	 0	
 222	-1.00964000e+01	 8.62982000e+00	-3.21260000e-01	1.000	 35	 0	
 223	-9.00341000e+00	 8.57913000e+00	-3.35660000e-01	1.000	 35	 0	
 224	-7.86696000e+00	 8.50032000e+00	-3.43700000e-01	1.000	 35	 0	
 225	-3.52130000e-01	 9.67146000e+00	-3.66830000e-01	1.000	 35	 0	
 226	-6.79681000e+00	 8.64451000e+00	-3.59990000e-01	1.000	 35	 0	
 227	-2.23805000e+00	 8.07866000e+00	 3.33930000e-01	1.000	 35	 0	
 228	-5.72655000e+00	 8.64760000e+00	-3.39470000e-01	1.000	 35	 0	
 229	-5.13880000e-01	 9.13617000e+00	 3.37760000e-01	1.000	 35	 0	
 230	 1.08541000e+01	 9.66119000e+00	-3.41770000e-01	1.000	 35	 0	
 231	-1.18444000e+01	 9.71524000e+00	-3.53380000e-01	1.000	 35	 0	
 232	-1.05777000e+01	 9.66979000e+00	-3.27130000e-01	1.000	 35	 0	
 233	-8.45323000e+00	 9.65133000e+00	-3.26060000e-01	1.000	 35	 0	
 234	-7.37507000e+00	 9.69744000e+00	-3.31440000e-01	1.000	 35	 0	
 235	-1.17707000e+01	 9.14812000e+00	 3.42450000e-01	1.000	 35	 0	
 236	 7.51162000e+00	 1.16716000e+01	-3.11890000e-01	1.000	 35	 0	
 237	-6.37643000e+00	 9.65587000e+00	-3.34340000e-01	1.000	 35	 0	
 238	 8.01960000e+00	 8.58091000e+00	-3.51960000e-01	1.000	 35	 0	
 239	-3.27701000e+00	 9.68531000e+00	-3.16940000e-01	1.000	 35	 0	
 240	-2.70337000e+00	 1.08482000e+01	-3.42630000e-01	1.000	 35	 0	
 241	 1.38239000e+00	 1.08967000e+01	-3.21050000e-01	1.000	 35	 0	
 242	 9.25041000e+00	 1.00031000e+01	 3.16650000e-01	1.000	 35	 0	
 243	 1.12929000e+01	 1.01002000e+01	 3.33830000e-01	1.000	 35	 0	
 244	-2.28146000e+00	 9.73864000e+00	-3.29100000e-01	1.000	 35	 0	
 245	 6.22880000e-01	 9.69388000e+00	-3.43210000e-01	1.000	 35	 0	
 246	-3.17996000e+00	 8.18210000e+00	 3.35740000e-01	1.000	 35	 0	
 247	 1.57815000e+00	 9.85664000e+00	-3.35320000e-01	1.000	 35	 0	
 248	 3.38640000e+00	 9.77107000e+00	-3.30440000e-01	1.000	 35	 0	
 249	 2.92189000e+00	 8.71773000e+00	-3.69270000e-01	1.000	 35	 0	
 250	 6.37754000e+00	 9.53974000e+00	-3.49650000e-01	1.000	 35	 0	
 251	 7.42034000e+00	 9.48014000e+00	-3.39360000e-01	1.000	 35	 0	
 252	 9.79285000e+00	 9.59552000e+00	-3.35030000e-01	1.000	 35	 0	
 253	-1.65588000e+00	 1.08075000e+01	-3.31550000e-01	1.000	 35	 0	
 254	-6.56090000e-01	 1.07237000e+01	-3.34620000e-01	1.000	 35	 0	
 255	 3.82330000e-01	 1.07182000e+01	-3.42280000e-01	1.000	 35	 0	
 256	-3.12915000e+00	 1.12472000e+01	 3.39130000e-01	1.000	 35	 0	
 257	 3.41083000e+00	 1.07825000e+01	-3.15930000e-01	1.000	 35	 0	
 258	 4.36719000e+00	 9.69795000e+00	-3.02920000e-01	1.000	 35	 0	
 259	 4.37116000e+00	 1.07799000e+01	-3.21730000e-01	1.000	 35	 0	
 260	-6.78589000e+00	 1.02242000e+01	 3.66660000e-01	1.000	 35	 0	
 261	 2.05137000e+00	 1.18723000e+01	-3.19630000e-01	1.000	 35	 0	
 262	 5.41161000e+00	 1.08152000e+01	-3.24230000e-01	1.000	 35	 0	
 263	 5.51195000e+00	 1.18179000e+01	-3.17610000e-01	1.000	 35	 0	
 264	 6.44913000e+00	 1.06764000e+01	-3.14250000e-01	1.000	 35	 0	
 265	 9.45934000e+00	 1.05711000e+01	-3.24870000e-01	1.000	 35	 0	
 266	 1.04818000e+01	 1.07384000e+01	-3.42080000e-01	1.000	 35	 0	
 267	 1.15156000e+01	 1.06948000e+01	-3.15530000e-01	1.000	 35	 0	
 268	-1.02470000e+01	 1.07425000e+01	-3.59010000e-01	1.000	 35	 0	
 269	-9.27289000e+00	 1.07076000e+01	-3.30690000e-01	1.000	 35	 0	
 270	-7.40465000e+00	 1.06937000e+01	-3.25120000e-01	1.000	 35	 0	
 271	-6.49215000e+00	 1.06137000e+01	-3.54900000e-01	1.000	 35	 0	
 272	-5.63799000e+00	 1.09013000e+01	-3.07850000e-01	1.000	 35	 0	
 273	-4.70838000e+00	 1.07009000e+01	-3.38930000e-01	1.000	 35	 0	
 274	-3.68624000e+00	 1.07840000e+01	-3.26040000e-01	1.000	 35	 0	
 275	-1.11955000e+00	 1.12753000e+01	 3.30510000e-01	1.000	 35	 0	
 276	-2.09300000e-01	 1.17477000e+01	-3.37890000e-01	1.000	 35	 0	
 277	 5.75851000e+00	-1.09396000e+01	-2.98940000e-01	1.000	 35	 0	
 278	 8.83100000e-01	 1.18342000e+01	-3.77320000e-01	1.000	 35	 0	
 279	-1.05435000e+01	 1.13227000e+01	 3.34520000e-01	1.000	 35	 0	
 280	-1.16550000e+01	 1.12707000e+01	 3.62060000e-01	1.000	 35	 0	
 281	 1.48985000e+00	-1.09468000e+01	-3.27840000e-01	1.000	 35	 0	
 282	 6.51321000e+00	 1.16777000e+01	-3.37690000e-01	1.000	 35	 0	
 283	 8.54297000e+00	 1.17387000e+01	-3.20930000e-01	1.000	 35	 0	
 284	 9.54005000e+00	 1.16387000e+01	-3.32430000e-01	1.000	 35	 0	
 285	 1.05272000e+01	 1.17869000e+01	-3.29440000e-01	1.000	 35	 0	
 286	 1.14621000e+01	 1.16730000e+01	-3.41530000e-01	1.000	 35	 0	
 287	-1.13339000e+01	 1.17196000e+01	-3.20530000e-01	1.000	 35	 0	
 288	-1.03764000e+01	 1.18836000e+01	-3.30810000e-01	1.000	 35	 0	
 289	-9.37971000e+00	-1.18697000e+01	-3.41160000e-01	1.000	 35	 0	
 290	-8.35151000e+00	 1.17917000e+01	-3.20420000e-01	1.000	 35	 0	
 291	-7.31280000e+00	 1.18190000e+01	-3.29830000e-01	1.000	 35	 0	
 292	-6.28658000e+00	 1.17913000e+01	-3.42620000e-01	1.000	 35	 0	
 293	-5.30323000e+00	 1.18790000e+01	-3.48020000e-01	1.000	 35	 0	
 294	-4.30731000e+00	 1.17927000e+01	-3.11690000e-01	1.000	 35	 0	
 295	-6.70600000e-01	-1.09842000e+01	-3.28910000e-01	1.000	 35	 0	
 296	-3.32564000e+00	 1.17909000e+01	-3.26450000e-01	1.000	 35	 0	
 297	-2.23913000e+00	 1.17762000e+01	-3.42590000e-01	1.000	 35	 0	
 298	-1.21902000e+00	-1.18788000e+01	-3.33060000e-01	1.000	 35	 0	
 299	-4.30816000e+00	-1.10219000e+01	-3.42040000e-01	1.000	 35	 0	
 300	-1.83948000e+00	-1.09599000e+01	-3.39410000e-01	1.000	 35	 0	
 301	 4.55791000e+00	-8.97550000e+00	-3.23550000e-01	1.000	 35	 0	
 302	 4.18710000e-01	-1.10163000e+01	-3.57300000e-01	1.000	 35	 0	
 303	 9.29576000e+00	-1.15229000e+01	 3.38810000e-01	1.000	 35	 0	
 304	 2.51077000e+00	-1.08440000e+01	-3.68190000e-01	1.000	 35	 0	
 305	 5.36112000e+00	-1.14273000e+01	 3.58000000e-01	1.000	 35	 0	
 306	 3.70847000e+00	-1.09735000e+01	-3.52180000e-01	1.000	 35	 0	
 307	-7.23811000e+00	-1.00388000e+01	-3.48870000e-01	1.000	 35	 0	
 308	-6.35450000e+00	-1.05205000e+01	 3.71090000e-01	1.000	 35	 0	
 309	 7.73476000e+00	-1.09231000e+01	-3.38750000e-01	1.000	 35	 0	
 310	 9.65992000e+00	-1.10345000e+01	-3.64510000e-01	1.000	 35	 0	
 311	 1.07905000e+01	-1.10063000e+01	-3.37570000e-01	1.000	 35	 0	
 312	-1.18824000e+01	-1.10865000e+01	-3.46610000e-01	1.000	 35	 0	
 313	-3.36094000e+00	-1.05073000e+01	 3.34810000e-01	1.000	 35	 0	
 314	-9.91335000e+00	-1.09152000e+01	-3.19600000e-01	1.000	 35	 0	
 315	-8.76781000e+00	-1.09603000e+01	-3.54120000e-01	1.000	 35	 0	
 316	 7.27519000e+00	-1.00113000e+01	-3.39060000e-01	1.000	 35	 0	
 317	-7.76300000e+00	-1.09902000e+01	-3.56520000e-01	1.000	 35	 0	
 318	 8.32356000e+00	-1.00504000e+01	-3.42720000e-01	1.000	 35	 0	
 319	-6.72631000e+00	-1.09762000e+01	-3.31560000e-01	1.000	 35	 0	
 320	 7.31472000e+00	-1.14899000e+01	 3.13460000e-01	1.000	 35	 0	
 321	-5.41541000e+00	-1.09320000e+01	-3.68190000e-01	1.000	 35	 0	
 322	-4.08086000e+00	-9.97288000e+00	-3.55360000e-01	1.000	 35	 0	
 323	-1.21975000e+00	-9.96912000e+00	-2.84850000e-01	1.000	 35	 0	
 324	 5.59431000e+00	-8.91373000e+00	-3.47700000e-01	1.000	 35	 0	
 325	-2.83080000e-01	-1.00438000e+01	-3.19570000e-01	1.000	 35	 0	
 326	 2.03284000e+00	-9.91338000e+00	-3.59700000e-01	1.000	 35	 0	
 327	-3.02120000e+00	-7.97893000e+00	-3.51160000e-01	1.000	 35	 0	
 328	 7.90590000e+00	-1.03798000e+01	 3.65180000e-01	1.000	 35	 0	
 329	 1.42101000e+00	-1.16074000e+01	 3.25230000e-01	1.000	 35	 0	
 330	-1.04415000e+01	-9.94978000e+00	-3.32140000e-01	1.000	 35	 0	
 331	-3.12016000e+00	-9.97245000e+00	-3.28030000e-01	1.000	 35	 0	
 332	 4.26477000e+00	-1.00252000e+01	-3.48100000e-01	1.000	 35	 0	
 333	 3.08210000e+00	-9.38982000e+00	 3.38380000e-01	1.000	 35	 0	
 334	 1.16383000e+01	-9.43265000e+00	 3.37210000e-01	1.000	 35	 0	
 335	 8.67592000e+00	-1.10582000e+01	-3.57180000e-01	1.000	 35	 0	
 336	 5.26659000e+00	-9.96861000e+00	-3.33310000e-01	1.000	 35	 0	
 337	 6.31346000e+00	-9.94446000e+00	-3.45650000e-01	1.000	 35	 0	
 338	-1.10855000e+01	-9.39667000e+00	 3.50980000e-01	1.000	 35	 0	
 339	 6.73887000e+00	-1.10953000e+01	-3.45060000e-01	1.000	 35	 0	
 340	 8.79401000e+00	-9.00749000e+00	-3.16600000e-01	1.000	 35	 0	
 341	-1.14945000e+01	-9.88904000e+00	-3.24370000e-01	1.000	 35	 0	
 342	-8.24657000e+00	-9.92293000e+00	-3.43120000e-01	1.000	 35	 0	
 343	 9.79500000e+00	-9.04176000e+00	-3.56910000e-01	1.000	 35	 0	
 344	-5.13384000e+00	-9.92715000e+00	-3.43690000e-01	1.000	 35	 0	
 345	-6.17429000e+00	-1.00434000e+01	-3.55330000e-01	1.000	 35	 0	
 346	 1.03374000e+01	-1.00664000e+01	-3.80470000e-01	1.000	 35	 0	
 347	 4.09447000e+00	-9.40785000e+00	 3.34330000e-01	1.000	 35	 0	
 348	 1.07254000e+01	-8.99065000e+00	-3.25960000e-01	1.000	 35	 0	
 349	 1.16809000e+01	-8.85854000e+00	-3.35120000e-01	1.000	 35	 0	
 350	-1.07857000e+01	-8.98345000e+00	-3.45150000e-01	1.000	 35	 0	
 351	-9.71600000e+00	-8.95555000e+00	-3.42980000e-01	1.000	 35	 0	
 352	-5.66565000e+00	-8.96647000e+00	-3.48020000e-01	1.000	 35	 0	
 353	-3.43515000e+00	-9.00591000e+00	-3.40300000e-01	1.000	 35	 0	
 354	-2.25100000e+00	-9.00357000e+00	-3.56790000e-01	1.000	 35	 0	
 355	 6.23500000e+00	-8.03282000e+00	-3.43290000e-01	1.000	 35	 0	
 356	-1.14537000e+00	-8.91643000e+00	-3.28690000e-01	1.000	 35	 0	
 357	 1.19300000e-02	-8.96432000e+00	-3.21780000e-01	1.000	 35	 0	
 358	 4.83601000e+00	-1.04085000e+01	 3.22820000e-01	1.000	 35	 0	
 359	 7.79155000e+00	-9.09909000e+00	-3.65380000e-01	1.000	 35	 0	
 360	-1.09248000e+01	-6.38079000e+00	 3.23060000e-01	1.000	 35	 0	
 361	 1.30624000e+00	-8.90318000e+00	-3.62230000e-01	1.000	 35	 0	
 362	 1.43386000e+00	-7.46399000e+00	 3.21040000e-01	1.000	 35	 0	
 363	 2.39275000e+00	-8.82419000e+00	-3.15160000e-01	1.000	 35	 0	
 364	 3.52141000e+00	-8.88166000e+00	-3.21030000e-01	1.000	 35	 0	
 365	 1.03637000e+01	-6.87062000e+00	-3.47070000e-01	1.000	 35	 0	
 366	 6.73827000e+00	-8.96848000e+00	-3.29390000e-01	1.000	 35	 0	
 367	-4.05716000e+00	-8.02833000e+00	-3.45960000e-01	1.000	 35	 0	
 368	 2.41255000e+00	-7.29534000e+00	 3.45360000e-01	1.000	 35	 0	
 369	 5.26919000e+00	-7.83278000e+00	-3.29730000e-01	1.000	 35	 0	
 370	-3.76382000e+00	-7.56765000e+00	 3.28530000e-01	1.000	 35	 0	
 371	 9.41708000e+00	-8.04158000e+00	-3.20620000e-01	1.000	 35	 0	
 372	-7.91364000e+00	-7.54685000e+00	 3.36230000e-01	1.000	 35	 0	
 373	 1.14870000e+01	-7.86297000e+00	-3.19700000e-01	1.000	 35	 0	
 374	 1.10187000e+01	-7.44023000e+00	 3.35160000e-01	1.000	 35	 0	
 375	-6.64044000e+00	-9.07346000e+00	-2.98910000e-01	1.000	 35	 0	
 376	-1.16847000e+01	-7.42856000e+00	 3.46120000e-01	1.000	 35	 0	
 377	-9.19200000e+00	-7.95409000e+00	-3.23590000e-01	1.000	 35	 0	
 378	-1.51478000e+00	-6.93056000e+00	-3.70000000e-01	1.000	 35	 0	
 379	-8.16107000e+00	-8.05979000e+00	-3.58020000e-01	1.000	 35	 0	
 380	-7.08576000e+00	-8.13573000e+00	-3.44330000e-01	1.000	 35	 0	
 381	-6.14082000e+00	-8.01053000e+00	-3.43020000e-01	1.000	 35	 0	
 382	-5.01669000e+00	-8.06376000e+00	-3.70580000e-01	1.000	 35	 0	
 383	-2.04610000e+00	-7.93100000e+00	-3.48660000e-01	1.000	 35	 0	
 384	-9.99609000e+00	-6.36260000e+00	 3.63910000e-01	1.000	 35	 0	
 385	-1.04204000e+00	-7.82959000e+00	-3.28570000e-01	1.000	 35	 0	
 386	 2.12395000e+00	-7.87910000e+00	-3.51060000e-01	1.000	 35	 0	
 387	 4.27838000e+00	-7.91382000e+00	-3.62770000e-01	1.000	 35	 0	
 388	 3.06865000e+00	-7.89408000e+00	-3.52690000e-01	1.000	 35	 0	
 389	-7.50344000e+00	-6.99272000e+00	-2.90010000e-01	1.000	 35	 0	
 390	 9.94560000e+00	-8.45137000e+00	 3.37840000e-01	1.000	 35	 0	
 391	 4.92596000e+00	-6.28111000e+00	 3.21300000e-01	1.000	 35	 0	
 392	-4.90360000e-01	-6.77800000e+00	-3.43750000e-01	1.000	 35	 0	
 393	 6.64090000e-01	-7.02222000e+00	-3.50070000e-01	1.000	 35	 0	
 394	-5.83936000e+00	-7.55704000e+00	 3.49720000e-01	1.000	 35	 0	
 395	 9.33273000e+00	-6.82899000e+00	-3.63310000e-01	1.000	 35	 0	
 396	 1.65506000e+00	-6.86392000e+00	-3.41760000e-01	1.000	 35	 0	
 397	 1.11210000e+01	-4.78453000e+00	-3.49720000e-01	1.000	 35	 0	
 398	 2.78403000e+00	-6.90629000e+00	-3.41540000e-01	1.000	 35	 0	
 399	 3.78594000e+00	-6.93553000e+00	-3.57280000e-01	1.000	 35	 0	
 400	 8.24517000e+00	-6.91119000e+00	-3.62740000e-01	1.000	 35	 0	
 401	 1.05327000e+00	-7.96911000e+00	-3.47340000e-01	1.000	 35	 0	
 402	 6.35018000e+00	-7.43197000e+00	 3.25870000e-01	1.000	 35	 0	
 403	-8.99982000e+00	-6.34362000e+00	 3.02000000e-01	1.000	 35	 0	
 404	-1.14117000e+01	-6.94192000e+00	-3.23780000e-01	1.000	 35	 0	
 405	-1.04857000e+01	-6.84706000e+00	-3.43660000e-01	1.000	 35	 0	
 406	 7.27690000e+00	-8.01998000e+00	-3.51850000e-01	1.000	 35	 0	
 407	-1.12853000e+01	-7.95095000e+00	-3.02720000e-01	1.000	 35	 0	
 408	 3.39198000e+00	-7.37977000e+00	 3.08210000e-01	1.000	 35	 0	
 409	-8.58681000e+00	-7.04382000e+00	-3.26890000e-01	1.000	 35	 0	
 410	-8.33750000e-01	-5.85180000e+00	-3.57450000e-01	1.000	 35	 0	
 411	 2.92035000e+00	-6.35039000e+00	 3.54520000e-01	1.000	 35	 0	
 412	-6.43173000e+00	-6.92305000e+00	-2.94090000e-01	1.000	 35	 0	
 413	-5.46679000e+00	-7.13074000e+00	-3.43780000e-01	1.000	 35	 0	
 414	 7.30388000e+00	-5.39705000e+00	 3.30600000e-01	1.000	 35	 0	
 415	-4.10523000e+00	-6.03372000e+00	-3.23400000e-01	1.000	 35	 0	
 416	-3.11590000e+00	-6.11730000e+00	-3.17090000e-01	1.000	 35	 0	
 417	-6.19282000e+00	-5.45190000e+00	 3.58730000e-01	1.000	 35	 0	
 418	 8.91098000e+00	-6.39993000e+00	 3.26410000e-01	1.000	 35	 0	
 419	-1.94310000e+00	-6.04234000e+00	-3.38060000e-01	1.000	 35	 0	
 420	-4.50025000e+00	-7.03050000e+00	-3.49360000e-01	1.000	 35	 0	
 421	 2.02500000e-01	-5.90824000e+00	-3.43870000e-01	1.000	 35	 0	
 422	 1.22131000e+00	-5.94579000e+00	-3.48130000e-01	1.000	 35	 0	
 423	 2.31018000e+00	-5.86549000e+00	-3.31610000e-01	1.000	 35	 0	
 424	 3.36213000e+00	-5.98805000e+00	-3.51380000e-01	1.000	 35	 0	
 425	 6.01332000e+00	-6.88465000e+00	-3.39650000e-01	1.000	 35	 0	
 426	 1.04248000e+01	-5.28714000e+00	 3.23480000e-01	1.000	 35	 0	
 427	 7.12727000e+00	-6.85479000e+00	-3.64840000e-01	1.000	 35	 0	
 428	-1.00964000e+00	-4.58945000e+00	-3.19010000e-01	1.000	 35	 0	
 429	 1.07727000e+01	-5.77038000e+00	-3.37340000e-01	1.000	 35	 0	
 430	 1.17794000e+01	-5.79498000e+00	-3.44650000e-01	1.000	 35	 0	
 431	-1.00352000e+01	-5.80838000e+00	-3.55480000e-01	1.000	 35	 0	
 432	-7.90382000e+00	-6.01043000e+00	-2.99290000e-01	1.000	 35	 0	
 433	 1.13872000e+01	-6.92432000e+00	-3.22820000e-01	1.000	 35	 0	
 434	-5.71647000e+00	-6.54939000e+00	 3.18610000e-01	1.000	 35	 0	
 435	-5.97859000e+00	-5.96497000e+00	-3.24270000e-01	1.000	 35	 0	
 436	-5.03857000e+00	-6.01198000e+00	-3.44550000e-01	1.000	 35	 0	
 437	-5.98471000e+00	-4.39933000e+00	 3.22380000e-01	1.000	 35	 0	
 438	 4.83520000e+00	-4.87891000e+00	-3.23260000e-01	1.000	 35	 0	
 439	 5.81447000e+00	-4.92602000e+00	-3.46180000e-01	1.000	 35	 0	
 440	 6.96192000e+00	-4.87020000e+00	-3.39020000e-01	1.000	 35	 0	
 441	 8.02113000e+00	-4.81009000e+00	-3.40930000e-01	1.000	 35	 0	
 442	 9.01247000e+00	-4.74451000e+00	-3.56020000e-01	1.000	 35	 0	
 443	-9.60276000e+00	-4.88683000e+00	-2.64100000e-01	1.000	 35	 0	