ITEM: TIMESTEP
90001
ITEM: BOX BOUNDS xx yy zz
-11.89302	 11.89302	
-11.89302	 11.89302	
-1.10000	 1.10000	
ITEM: NUMBER OF ATOMS
1058
ITEM: ATOMS index x y z diameter charge species
   0	-0.73556	 0.22010	-0.34312	1.000	 35	 0	
   1	 0.22686	 0.09659	-0.32633	1.000	 35	 0	
   2	 1.23949	 0.05107	-0.35538	1.000	 35	 0	
   3	 2.25222	 0.20619	-0.33403	1.000	 35	 0	
   4	 3.28319	 0.18868	-0.32307	1.000	 35	 0	
   5	 4.31105	 0.21334	-0.34090	1.000	 35	 0	
   6	 5.35688	 0.25067	-0.34819	1.000	 35	 0	
   7	 6.43004	 0.20906	-0.33938	1.000	 35	 0	
   8	 7.36478	 0.15814	-0.30751	1.000	 35	 0	
   9	 8.49083	 0.19316	-0.34456	1.000	 35	 0	
  10	 9.54995	 0.20724	-0.36731	1.000	 35	 0	
  11	 10.55012	 0.20896	-0.32154	1.000	 35	 0	
  12	 11.55309	 0.12125	-0.34669	1.000	 35	 0	
  13	-11.21813	 0.22487	-0.30161	1.000	 35	 0	
  14	-10.20586	 0.08340	-0.34611	1.000	 35	 0	
  15	-9.10080	 0.11761	-0.35605	1.000	 35	 0	
  16	-8.08424	 0.24337	-0.34835	1.000	 35	 0	
  17	-7.04710	 0.23465	-0.35602	1.000	 35	 0	
  18	-5.99422	 0.22793	-0.34969	1.000	 35	 0	
  19	-4.98604	 0.19244	-0.34814	1.000	 35	 0	
  20	-3.94920	 0.15378	-0.35390	1.000	 35	 0	
  21	-2.80872	 0.25398	-0.34729	1.000	 35	 0	
  22	-1.78910	 0.16726	-0.32362	1.000	 35	 0	
  23	-0.06783	 1.21773	-0.34984	1.000	 35	 0	
  24	 0.98824	 1.28923	-0.35493	1.000	 35	 0	
  25	 1.98203	 1.39641	-0.35834	1.000	 35	 0	
  26	 3.01678	 1.35527	-0.32905	1.000	 35	 0	
  27	 4.05545	 1.29263	-0.34442	1.000	 35	 0	
  28	 5.06362	 1.41672	-0.36254	1.000	 35	 0	
  29	 6.10840	 1.24139	-0.36621	1.000	 35	 0	
  30	 7.09317	 1.21096	-0.33861	1.000	 35	 0	
  31	 8.07571	 1.24992	-0.35583	1.000	 35	 0	
  32	 9.03764	 1.33415	-0.33922	1.000	 35	 0	
  33	 10.13209	 1.23291	-0.36526	1.000	 35	 0	
  34	 11.12888	 1.17435	-0.32472	1.000	 35	 0	
  35	-11.62783	 1.26287	-0.37085	1.000	 35	 0	
  36	-10.58008	 1.24368	-0.33978	1.000	 35	 0	
  37	-9.55838	 1.09134	-0.34108	1.000	 35	 0	
  38	-8.47147	 1.30200	-0.33479	1.000	 35	 0	
  39	-7.47870	 1.23277	-0.35547	1.000	 35	 0	
  40	-6.47561	 1.22626	-0.32959	1.000	 35	 0	
  41	-5.41154	 1.24903	-0.33239	1.000	 35	 0	
  42	-4.39239	 1.22887	-0.32582	1.000	 35	 0	
  43	-3.27015	 1.27618	-0.32311	1.000	 35	 0	
  44	-2.21249	 1.26440	-0.34078	1.000	 35	 0	
  45	-1.18841	 1.28937	-0.35096	1.000	 35	 0	
  46	 0.38106	 2.33640	-0.33401	1.000	 35	 0	
  47	 1.42592	 2.46362	-0.30323	1.000	 35	 0	
  48	 2.42497	 2.40204	-0.35184	1.000	 35	 0	
  49	 3.41970	 2.37092	-0.33474	1.000	 35	 0	
  50	 4.41572	 2.36620	-0.35117	1.000	 35	 0	
  51	 5.44998	 2.37055	-0.31971	1.000	 35	 0	
  52	 6.46134	 2.27204	-0.33239	1.000	 35	 0	
  53	 7.49751	 2.27417	-0.30726	1.000	 35	 0	
  54	 8.48968	 2.24189	-0.36318	1.000	 35	 0	
  55	 9.57617	 2.31151	-0.33447	1.000	 35	 0	
  56	 10.56725	 2.18279	-0.33693	1.000	 35	 0	
  57	 11.60347	 2.23016	-0.34899	1.000	 35	 0	
  58	-11.12697	 2.34165	-0.33171	1.000	 35	 0	
  59	-10.08821	 2.27376	-0.32755	1.000	 35	 0	
  60	-9.08422	 2.29707	-0.32284	1.000	 35	 0	
  61	-7.97531	 2.32405	-0.34788	1.000	 35	 0	
  62	-7.00622	 2.36249	-0.36479	1.000	 35	 0	
  63	-6.05109	 2.19461	-0.34919	1.000	 35	 0	
  64	-4.99748	 2.31752	-0.32512	1.000	 35	 0	
  65	-3.99518	 2.21063	-0.35570	1.000	 35	 0	
  66	-2.82149	 2.34866	-0.35248	1.000	 35	 0	
  67	-1.76699	 2.37149	-0.36036	1.000	 35	 0	
  68	-0.63403	 2.25820	-0.34890	1.000	 35	 0	
  69	 1.88802	 3.45550	-0.33784	1.000	 35	 0	
  70	 2.95386	 3.38910	-0.30710	1.000	 35	 0	
  71	 3.96382	 3.37856	-0.34364	1.000	 35	 0	
  72	 4.98476	 3.39267	-0.35657	1.000	 35	 0	
  73	 6.02226	 3.34598	-0.35672	1.000	 35	 0	
  74	 6.98143	 3.36684	-0.34092	1.000	 35	 0	
  75	 7.94902	 3.32770	-0.31238	1.000	 35	 0	
  76	 8.94138	 3.25307	-0.34261	1.000	 35	 0	
  77	 9.96472	 3.26238	-0.35652	1.000	 35	 0	
  78	 10.91383	 3.23285	-0.32248	1.000	 35	 0	
  79	-11.86378	 3.23698	-0.36835	1.000	 35	 0	
  80	-10.86216	 3.26062	-0.31531	1.000	 35	 0	
  81	-9.71965	 3.29799	-0.35079	1.000	 35	 0	
  82	-8.61472	 3.20738	-0.35774	1.000	 35	 0	
  83	-7.54094	 3.33410	-0.33202	1.000	 35	 0	
  84	-6.38562	 3.28871	-0.34200	1.000	 35	 0	
  85	-5.33944	 3.41517	-0.35291	1.000	 35	 0	
  86	-4.34493	 3.28661	-0.33908	1.000	 35	 0	
  87	-3.35710	 3.33616	-0.34880	1.000	 35	 0	
  88	-2.24917	 3.45137	-0.34977	1.000	 35	 0	
  89	-1.20232	 3.26202	-0.32203	1.000	 35	 0	
  90	-0.25435	 3.34127	-0.34567	1.000	 35	 0	
  91	 0.79548	 3.30032	-0.34716	1.000	 35	 0	
  92	 2.36008	 4.39895	-0.32306	1.000	 35	 0	
  93	 3.37128	 4.36456	-0.34806	1.000	 35	 0	
  94	 4.50446	 4.33816	-0.35225	1.000	 35	 0	
  95	 5.52931	 4.35768	-0.34340	1.000	 35	 0	
  96	 6.53532	 4.42797	-0.34191	1.000	 35	 0	
  97	 7.48892	 4.43641	-0.34152	1.000	 35	 0	
  98	 8.46313	 4.35342	-0.31782	1.000	 35	 0	
  99	 9.37479	 4.27446	-0.34207	1.000	 35	 0	
 100	 10.27584	 4.24090	-0.29540	1.000	 35	 0	
 101	 11.19410	 4.39547	-0.35546	1.000	 35	 0	
 102	-11.70624	 4.36998	-0.34913	1.000	 35	 0	
 103	-10.77563	 4.40333	-0.35463	1.000	 35	 0	
 104	-8.87776	 4.28461	-0.31869	1.000	 35	 0	
 105	-7.88677	 4.33611	-0.34482	1.000	 35	 0	
 106	-6.87610	 4.39832	-0.33123	1.000	 35	 0	
 107	-5.87994	 4.45407	-0.32721	1.000	 35	 0	
 108	-4.78849	 4.37034	-0.32746	1.000	 35	 0	
 109	-3.76209	 4.33128	-0.34075	1.000	 35	 0	
 110	-2.76414	 4.43629	-0.32397	1.000	 35	 0	
 111	-1.74721	 4.37629	-0.34651	1.000	 35	 0	
 112	-0.83386	 4.30103	-0.36017	1.000	 35	 0	
 113	 0.30518	 4.34160	-0.32484	1.000	 35	 0	
 114	 1.33786	 4.41822	-0.34973	1.000	 35	 0	
 115	 1.79762	 5.46084	-0.34043	1.000	 35	 0	
 116	 2.85207	 5.41734	-0.32313	1.000	 35	 0	
 117	 3.87778	 5.29339	-0.32870	1.000	 35	 0	
 118	 4.84959	 5.32513	-0.32844	1.000	 35	 0	
 119	 5.83826	 5.36617	-0.35225	1.000	 35	 0	
 120	 6.89151	 5.44498	-0.31306	1.000	 35	 0	
 121	 7.95797	 5.44374	-0.36055	1.000	 35	 0	
 122	 8.90836	 5.35811	-0.36509	1.000	 35	 0	
 123	 9.88583	 5.25642	-0.33746	1.000	 35	 0	
 124	 10.97590	 5.39392	-0.35905	1.000	 35	 0	
 125	-11.65724	 5.35248	-0.33512	1.000	 35	 0	
 126	-9.83381	 4.39753	-0.35351	1.000	 35	 0	
 127	-9.62913	 5.39356	-0.33891	1.000	 35	 0	
 128	-8.64284	 5.30656	-0.32769	1.000	 35	 0	
 129	-7.60362	 5.38003	-0.34398	1.000	 35	 0	
 130	-6.59722	 5.40230	-0.33154	1.000	 35	 0	
 131	-5.60307	 5.49502	-0.31473	1.000	 35	 0	
 132	-4.46533	 5.43026	-0.34497	1.000	 35	 0	
 133	-3.39559	 5.40056	-0.31036	1.000	 35	 0	
 134	-2.34628	 5.37260	-0.34013	1.000	 35	 0	
 135	-1.36433	 5.34696	-0.33870	1.000	 35	 0	
 136	-0.43510	 5.34606	-0.34863	1.000	 35	 0	
 137	 0.67984	 5.38519	-0.36383	1.000	 35	 0	
 138	 0.13735	 6.36131	-0.35232	1.000	 35	 0	
 139	 1.14315	 6.43584	-0.35133	1.000	 35	 0	
 140	 2.22838	 6.44410	-0.33407	1.000	 35	 0	
 141	 3.26760	 6.37494	-0.37285	1.000	 35	 0	
 142	 4.26395	 6.35978	-0.36402	1.000	 35	 0	
 143	 5.22895	 6.28410	-0.34727	1.000	 35	 0	
 144	 6.32936	 6.36070	-0.34138	1.000	 35	 0	
 145	 7.38130	 6.44332	-0.34238	1.000	 35	 0	
 146	 9.39777	 6.34122	-0.35132	1.000	 35	 0	
 147	 10.44973	 6.33544	-0.34083	1.000	 35	 0	
 148	 11.46540	 6.42575	-0.30306	1.000	 35	 0	
 149	-11.20520	 6.51425	-0.35227	1.000	 35	 0	
 150	-10.66373	 5.44462	-0.35844	1.000	 35	 0	
 151	-10.08666	 6.42976	-0.33320	1.000	 35	 0	
 152	-9.06107	 6.38386	-0.31779	1.000	 35	 0	
 153	-8.01952	 6.37299	-0.35549	1.000	 35	 0	
 154	-6.99671	 6.40329	-0.34134	1.000	 35	 0	
 155	-5.95741	 6.50730	-0.34778	1.000	 35	 0	
 156	-4.91206	 6.55030	-0.34121	1.000	 35	 0	
 157	-3.88830	 6.47243	-0.29787	1.000	 35	 0	
 158	-2.88322	 6.38502	-0.36503	1.000	 35	 0	
 159	-1.87210	 6.38048	-0.35863	1.000	 35	 0	
 160	-0.92199	 6.25214	-0.35546	1.000	 35	 0	
 161	-0.36719	 7.42265	-0.33006	1.000	 35	 0	
 162	 0.62252	 7.43384	-0.31075	1.000	 35	 0	
 163	 1.63440	 7.45806	-0.36764	1.000	 35	 0	
 164	 2.84536	 7.33669	-0.36495	1.000	 35	 0	
 165	 3.88277	 7.36138	-0.32815	1.000	 35	 0	
 166	 4.92241	 7.46804	-0.31902	1.000	 35	 0	
 167	 5.89008	 7.43390	-0.33744	1.000	 35	 0	
 168	 6.89202	 7.33795	-0.34517	1.000	 35	 0	
 169	 7.92860	 7.42365	-0.37297	1.000	 35	 0	
 170	 8.93582	 7.36818	-0.32535	1.000	 35	 0	
 171	 10.05601	 7.32066	-0.35601	1.000	 35	 0	
 172	 11.15205	 7.28839	-0.27551	1.000	 35	 0	
 173	-11.60242	 7.45670	-0.34763	1.000	 35	 0	
 174	-10.57882	 7.47980	-0.35614	1.000	 35	 0	
 175	-9.53902	 7.44986	-0.32591	1.000	 35	 0	
 176	-8.51898	 7.36421	-0.35510	1.000	 35	 0	
 177	-7.55695	 7.37378	-0.35344	1.000	 35	 0	
 178	-6.51488	 7.46286	-0.33967	1.000	 35	 0	
 179	-5.43611	 7.48621	-0.35090	1.000	 35	 0	
 180	-4.37682	 7.57038	-0.30957	1.000	 35	 0	
 181	-3.37867	 7.40637	-0.31080	1.000	 35	 0	
 182	-2.42115	 7.33608	-0.33867	1.000	 35	 0	
 183	-1.45761	 7.33360	-0.34855	1.000	 35	 0	
 184	 0.18281	 8.38446	-0.32607	1.000	 35	 0	
 185	 1.18867	 8.46776	-0.33233	1.000	 35	 0	
 186	 2.18442	 8.50186	-0.33754	1.000	 35	 0	
 187	 3.23773	 8.37343	-0.33075	1.000	 35	 0	
 188	 4.20436	 8.42801	-0.32645	1.000	 35	 0	
 189	 5.22783	 8.48922	-0.30516	1.000	 35	 0	
 190	 6.30481	 8.32812	-0.37325	1.000	 35	 0	
 191	 7.31346	 8.44604	-0.33295	1.000	 35	 0	
 192	 8.31723	 8.42144	-0.31200	1.000	 35	 0	
 193	 9.41245	 8.36236	-0.30483	1.000	 35	 0	
 194	 10.41083	 8.31749	-0.34202	1.000	 35	 0	
 195	 11.39903	 8.41767	-0.36650	1.000	 35	 0	
 196	-11.14023	 8.46483	-0.31332	1.000	 35	 0	
 197	-10.03309	 8.48745	-0.32809	1.000	 35	 0	
 198	-8.93836	 8.44824	-0.29226	1.000	 35	 0	
 199	-7.93776	 8.46294	-0.32389	1.000	 35	 0	
 200	-6.98030	 8.46300	-0.32245	1.000	 35	 0	
 201	-5.97140	 8.48720	-0.34571	1.000	 35	 0	
 202	-4.93054	 8.50883	-0.34090	1.000	 35	 0	
 203	-3.89033	 8.55586	-0.32029	1.000	 35	 0	
 204	-2.87613	 8.46039	-0.33905	1.000	 35	 0	
 205	-1.82413	 8.44671	-0.33448	1.000	 35	 0	
 206	-0.83615	 8.44884	-0.32956	1.000	 35	 0	
 207	-0.35867	 9.33322	-0.32405	1.000	 35	 0	
 208	 0.61053	 9.49570	-0.30748	1.000	 35	 0	
 209	 1.54089	 9.50789	-0.33234	1.000	 35	 0	
 210	 2.41273	 9.59705	-0.33931	1.000	 35	 0	
 211	 3.29970	 9.51815	-0.30103	1.000	 35	 0	
 212	 4.25617	 9.54376	-0.32022	1.000	 35	 0	
 213	 5.24508	 9.65184	-0.32856	1.000	 35	 0	
 214	 6.30950	 9.51779	-0.29099	1.000	 35	 0	
 215	 7.33656	 9.57750	-0.33400	1.000	 35	 0	
 216	 8.31419	 9.52176	-0.35549	1.000	 35	 0	
 217	 9.38974	 9.50582	-0.33399	1.000	 35	 0	
 218	 10.47297	 9.41955	-0.34570	1.000	 35	 0	
 219	-11.75409	 9.41506	-0.34596	1.000	 35	 0	
 220	-10.60389	 9.45114	-0.33894	1.000	 35	 0	
 221	-9.54397	 9.46858	-0.34350	1.000	 35	 0	
 222	-8.49642	 9.51974	-0.33248	1.000	 35	 0	
 223	-7.46647	 9.50694	-0.35513	1.000	 35	 0	
 224	-6.48656	 9.46974	-0.36259	1.000	 35	 0	
 225	-5.52073	 9.52549	-0.34188	1.000	 35	 0	
 226	-4.48043	 9.49177	-0.33691	1.000	 35	 0	
 227	-3.34077	 9.62279	-0.35577	1.000	 35	 0	
 228	-2.38250	 9.42494	-0.33635	1.000	 35	 0	
 229	-1.40347	 9.50629	-0.34538	1.000	 35	 0	
 230	-0.86151	 10.52147	-0.33574	1.000	 35	 0	
 231	 0.13927	 10.59120	-0.36804	1.000	 35	 0	
 232	 1.23280	 10.63532	-0.34583	1.000	 35	 0	
 233	 2.22820	 10.60976	-0.34158	1.000	 35	 0	
 234	 3.24094	 10.63821	-0.32439	1.000	 35	 0	
 235	 4.30424	 10.61737	-0.29699	1.000	 35	 0	
 236	 5.30019	 10.66135	-0.29594	1.000	 35	 0	
 237	 6.29965	 10.60033	-0.33173	1.000	 35	 0	
 238	 7.30957	 10.55230	-0.27702	1.000	 35	 0	
 239	 8.35108	 10.58978	-0.30421	1.000	 35	 0	
 240	 9.32866	 10.47672	-0.33180	1.000	 35	 0	
 241	 10.52042	 10.49239	-0.31900	1.000	 35	 0	
 242	 11.55232	 10.56864	-0.31921	1.000	 35	 0	
 243	-11.22674	 10.46875	-0.35796	1.000	 35	 0	
 244	-10.20764	 10.44006	-0.35014	1.000	 35	 0	
 245	-9.21257	 10.46361	-0.35718	1.000	 35	 0	
 246	-8.07557	 10.52855	-0.33380	1.000	 35	 0	
 247	-7.12151	 10.52663	-0.34846	1.000	 35	 0	
 248	-6.01996	 10.57957	-0.35102	1.000	 35	 0	
 249	-4.97692	 10.60621	-0.33307	1.000	 35	 0	
 250	-3.89354	 10.64715	-0.32973	1.000	 35	 0	
 251	-2.93849	 10.66838	-0.34950	1.000	 35	 0	
 252	-1.88724	 10.67789	-0.32687	1.000	 35	 0	
 253	-0.21838	 11.58182	-0.37126	1.000	 35	 0	
 254	 0.85567	 11.63261	-0.35426	1.000	 35	 0	
 255	 1.99734	 11.60350	-0.32535	1.000	 35	 0	
 256	 3.05118	 11.70845	-0.33680	1.000	 35	 0	
 257	 4.13135	 11.62434	-0.36702	1.000	 35	 0	
 258	 5.31474	 11.70173	-0.32515	1.000	 35	 0	
 259	 6.33862	 11.60892	-0.30872	1.000	 35	 0	
 260	 7.32723	 11.61268	-0.34869	1.000	 35	 0	
 261	 8.37861	 11.57276	-0.34719	1.000	 35	 0	
 262	 9.33297	 11.47275	-0.30776	1.000	 35	 0	
 263	 10.28482	 11.46024	-0.33131	1.000	 35	 0	
 264	 11.20264	 11.61757	-0.34302	1.000	 35	 0	
 265	-11.51209	 11.45373	-0.35469	1.000	 35	 0	
 266	-10.54651	 11.59019	-0.35973	1.000	 35	 0	
 267	-9.57448	 11.56499	-0.32218	1.000	 35	 0	
 268	-8.56149	 11.45002	-0.36952	1.000	 35	 0	
 269	-7.41921	 11.58721	-0.36055	1.000	 35	 0	
 270	-6.42273	 11.65716	-0.31632	1.000	 35	 0	
 271	-5.39846	 11.69730	-0.33890	1.000	 35	 0	
 272	-4.42225	 11.60516	-0.34888	1.000	 35	 0	
 273	-3.40116	 11.68529	-0.33562	1.000	 35	 0	
 274	-2.41642	 11.65551	-0.34620	1.000	 35	 0	
 275	-1.26978	 11.63331	-0.33689	1.000	 35	 0	
 276	 0.29061	-11.26520	-0.35556	1.000	 35	 0	
 277	 1.58767	-11.21142	-0.36275	1.000	 35	 0	
 278	 2.61294	-11.09134	-0.32258	1.000	 35	 0	
 279	 3.70123	-11.13469	-0.35794	1.000	 35	 0	
 280	 4.69458	-11.22320	-0.37786	1.000	 35	 0	
 281	 5.68860	-11.15385	-0.33526	1.000	 35	 0	
 282	 6.73768	-11.14102	-0.36452	1.000	 35	 0	
 283	 7.80523	-11.16014	-0.35080	1.000	 35	 0	
 284	 8.76935	-11.25078	-0.36386	1.000	 35	 0	
 285	 9.84394	-11.31727	-0.32959	1.000	 35	 0	
 286	 10.80154	-11.19660	-0.35378	1.000	 35	 0	
 287	 11.76147	-11.30447	-0.32351	1.000	 35	 0	
 288	-11.10923	-11.24891	-0.28744	1.000	 35	 0	
 289	-10.14481	-11.17623	-0.31828	1.000	 35	 0	
 290	-9.17290	-11.17340	-0.35240	1.000	 35	 0	
 291	-8.23860	-11.26496	-0.33026	1.000	 35	 0	
 292	-7.16923	-11.13329	-0.33616	1.000	 35	 0	
 293	-6.16509	-11.09101	-0.34646	1.000	 35	 0	
 294	-5.13583	-11.07482	-0.31972	1.000	 35	 0	
 295	-4.09068	-11.03663	-0.33767	1.000	 35	 0	
 296	-3.12647	-11.01110	-0.32802	1.000	 35	 0	
 297	-1.94080	-11.15571	-0.32914	1.000	 35	 0	
 298	-0.81143	-11.21373	-0.35889	1.000	 35	 0	
 299	 1.28837	-10.05871	-0.31385	1.000	 35	 0	
 300	 2.26430	-10.04279	-0.36408	1.000	 35	 0	
 301	 3.27575	-10.12079	-0.35431	1.000	 35	 0	
 302	 4.33119	-10.08840	-0.32580	1.000	 35	 0	
 303	 5.33484	-10.10862	-0.32768	1.000	 35	 0	
 304	 6.36461	-10.08848	-0.35375	1.000	 35	 0	
 305	 7.40048	-10.14034	-0.34030	1.000	 35	 0	
 306	 8.41053	-10.22219	-0.32470	1.000	 35	 0	
 307	 9.35887	-10.34384	-0.35172	1.000	 35	 0	
 308	 10.44168	-10.18830	-0.35107	1.000	 35	 0	
 309	 11.46562	-10.24932	-0.31733	1.000	 35	 0	
 310	-11.28985	-10.22781	-0.34188	1.000	 35	 0	
 311	-10.28037	-10.19291	-0.31666	1.000	 35	 0	
 312	-9.14860	-10.10539	-0.32924	1.000	 35	 0	
 313	-8.02498	-10.19906	-0.32166	1.000	 35	 0	
 314	-7.04490	-10.08105	-0.32661	1.000	 35	 0	
 315	-5.97179	-10.02870	-0.35250	1.000	 35	 0	
 316	-4.86595	-10.05994	-0.34202	1.000	 35	 0	
 317	-3.80331	-10.01035	-0.33782	1.000	 35	 0	
 318	-2.86950	-10.02816	-0.33741	1.000	 35	 0	
 319	-1.79583	-10.17983	-0.32524	1.000	 35	 0	
 320	-0.76408	-10.09944	-0.33705	1.000	 35	 0	
 321	 0.27123	-10.17847	-0.32380	1.000	 35	 0	
 322	 0.59607	-9.17388	-0.35014	1.000	 35	 0	
 323	 1.52386	-9.01447	-0.33208	1.000	 35	 0	
 324	 2.49439	-9.04104	-0.33013	1.000	 35	 0	
 325	 3.49840	-9.13643	-0.35291	1.000	 35	 0	
 326	 4.65867	-9.15248	-0.34582	1.000	 35	 0	
 327	 5.71389	-9.08057	-0.36530	1.000	 35	 0	
 328	 6.74112	-9.07649	-0.35595	1.000	 35	 0	
 329	 7.66200	-9.22351	-0.30028	1.000	 35	 0	
 330	 8.59006	-9.05531	-0.33887	1.000	 35	 0	
 331	 9.57140	-9.19771	-0.34306	1.000	 35	 0	
 332	 10.61886	-9.09186	-0.34041	1.000	 35	 0	
 333	 11.52598	-9.04835	-0.32404	1.000	 35	 0	
 334	-11.27585	-9.07823	-0.31149	1.000	 35	 0	
 335	-10.09819	-9.08286	-0.34599	1.000	 35	 0	
 336	-9.05684	-9.11693	-0.35058	1.000	 35	 0	
 337	-7.86210	-9.17011	-0.35456	1.000	 35	 0	
 338	-6.67379	-9.03070	-0.34843	1.000	 35	 0	
 339	-5.23824	-9.03109	-0.33030	1.000	 35	 0	
 340	-4.26866	-9.04787	-0.35956	1.000	 35	 0	
 341	-3.26249	-8.96010	-0.35259	1.000	 35	 0	
 342	-2.25386	-9.02469	-0.30043	1.000	 35	 0	
 343	-1.24088	-9.14922	-0.33681	1.000	 35	 0	
 344	-0.33620	-9.09121	-0.34341	1.000	 35	 0	
 345	 1.10998	-8.11622	-0.33155	1.000	 35	 0	
 346	 2.14944	-7.96140	-0.34103	1.000	 35	 0	
 347	 3.21335	-8.04179	-0.35002	1.000	 35	 0	
 348	 4.22566	-8.12873	-0.33870	1.000	 35	 0	
 349	 5.24181	-8.01408	-0.33642	1.000	 35	 0	
 350	 6.25686	-7.95618	-0.33766	1.000	 35	 0	
 351	 7.32130	-8.01434	-0.31236	1.000	 35	 0	
 352	 8.28209	-7.97100	-0.29187	1.000	 35	 0	
 353	 9.31592	-8.11394	-0.32988	1.000	 35	 0	
 354	 10.29344	-8.13194	-0.31122	1.000	 35	 0	
 355	 11.24167	-8.06260	-0.34586	1.000	 35	 0	
 356	-11.55838	-8.03141	-0.33967	1.000	 35	 0	
 357	-10.56839	-8.09426	-0.31999	1.000	 35	 0	
 358	-9.56479	-7.98124	-0.26844	1.000	 35	 0	
 359	-8.60777	-8.10868	-0.31673	1.000	 35	 0	
 360	-7.69223	-8.00524	-0.33501	1.000	 35	 0	
 361	-6.79957	-7.93141	-0.34310	1.000	 35	 0	
 362	-5.88163	-8.09080	-0.31604	1.000	 35	 0	
 363	-4.83337	-7.97961	-0.33329	1.000	 35	 0	
 364	-2.78475	-8.06702	-0.34631	1.000	 35	 0	
 365	-1.87294	-8.12140	-0.31693	1.000	 35	 0	
 366	-0.85734	-8.12406	-0.32721	1.000	 35	 0	
 367	 0.11113	-8.20644	-0.30748	1.000	 35	 0	
 368	 0.04482	-7.01227	-0.33113	1.000	 35	 0	
 369	 1.17136	-6.95862	-0.34773	1.000	 35	 0	
 370	 2.34846	-6.88600	-0.38794	1.000	 35	 0	
 371	 3.35993	-6.98570	-0.34516	1.000	 35	 0	
 372	 4.27318	-7.08039	-0.34643	1.000	 35	 0	
 373	 5.30448	-6.97449	-0.32389	1.000	 35	 0	
 374	 6.36991	-6.96232	-0.31134	1.000	 35	 0	
 375	 8.66706	-7.03781	-0.34796	1.000	 35	 0	
 376	 9.63672	-7.09603	-0.32587	1.000	 35	 0	
 377	 10.69428	-7.06545	-0.32111	1.000	 35	 0	
 378	 11.69728	-7.01412	-0.33392	1.000	 35	 0	
 379	-11.10144	-7.04182	-0.32048	1.000	 35	 0	
 380	-10.16338	-6.94987	-0.34149	1.000	 35	 0	
 381	-9.15597	-7.01232	-0.36308	1.000	 35	 0	
 382	-8.11561	-7.05116	-0.33471	1.000	 35	 0	
 383	-6.92743	-6.90691	-0.33066	1.000	 35	 0	
 384	-5.80717	-6.97093	-0.31432	1.000	 35	 0	
 385	-4.83571	-6.97055	-0.33019	1.000	 35	 0	
 386	-3.78629	-8.04498	-0.35199	1.000	 35	 0	
 387	-3.84010	-6.95119	-0.31970	1.000	 35	 0	
 388	-2.87641	-7.07075	-0.33215	1.000	 35	 0	
 389	-1.87815	-7.06675	-0.36258	1.000	 35	 0	
 390	-0.91511	-7.01149	-0.32343	1.000	 35	 0	
 391	-0.03379	-5.99577	-0.33166	1.000	 35	 0	
 392	 0.94501	-6.05509	-0.33959	1.000	 35	 0	
 393	 1.92314	-5.95353	-0.34554	1.000	 35	 0	
 394	 3.05003	-6.02523	-0.36314	1.000	 35	 0	
 395	 4.18777	-6.07359	-0.35496	1.000	 35	 0	
 396	 5.32215	-6.00286	-0.30459	1.000	 35	 0	
 397	 6.37130	-5.98294	-0.36686	1.000	 35	 0	
 398	 7.44387	-6.97101	-0.33708	1.000	 35	 0	
 399	 7.58510	-5.90656	-0.34299	1.000	 35	 0	
 400	 8.95008	-6.01504	-0.35259	1.000	 35	 0	
 401	 10.18056	-6.05953	-0.35157	1.000	 35	 0	
 402	 11.17701	-5.92328	-0.33550	1.000	 35	 0	
 403	-11.58429	-5.98390	-0.34549	1.000	 35	 0	
 404	-10.59731	-5.93796	-0.32078	1.000	 35	 0	
 405	-9.61071	-6.00312	-0.33899	1.000	 35	 0	
 406	-8.56992	-5.91890	-0.33099	1.000	 35	 0	
 407	-7.47690	-5.88875	-0.36535	1.000	 35	 0	
 408	-6.37543	-5.88833	-0.33317	1.000	 35	 0	
 409	-5.40659	-5.74185	-0.31176	1.000	 35	 0	
 410	-4.29236	-5.92284	-0.36062	1.000	 35	 0	
 411	-3.16465	-6.08692	-0.36086	1.000	 35	 0	
 412	-2.08731	-6.08927	-0.36793	1.000	 35	 0	
 413	-1.13980	-5.99964	-0.31877	1.000	 35	 0	
 414	 0.48364	-4.99070	-0.33945	1.000	 35	 0	
 415	 1.46237	-4.96123	-0.35976	1.000	 35	 0	
 416	 2.42666	-4.93391	-0.33596	1.000	 35	 0	
 417	 3.37469	-4.93653	-0.32777	1.000	 35	 0	
 418	 4.32692	-5.00928	-0.32227	1.000	 35	 0	
 419	 5.25020	-4.91523	-0.34969	1.000	 35	 0	
 420	 6.23407	-4.92968	-0.31677	1.000	 35	 0	
 421	 7.16614	-4.84392	-0.36769	1.000	 35	 0	
 422	 8.37525	-5.05399	-0.34488	1.000	 35	 0	
 423	 9.63460	-5.01677	-0.32309	1.000	 35	 0	
 424	 10.70818	-5.01705	-0.31705	1.000	 35	 0	
 425	 11.71134	-4.94305	-0.33883	1.000	 35	 0	
 426	-11.04734	-4.83002	-0.35360	1.000	 35	 0	
 427	-10.05070	-4.83732	-0.34692	1.000	 35	 0	
 428	-9.02881	-4.90125	-0.32786	1.000	 35	 0	
 429	-8.01681	-4.89832	-0.35110	1.000	 35	 0	
 430	-6.89359	-4.92543	-0.35198	1.000	 35	 0	
 431	-5.85922	-4.83965	-0.35771	1.000	 35	 0	
 432	-4.87064	-4.82205	-0.34109	1.000	 35	 0	
 433	-3.75585	-4.87577	-0.32845	1.000	 35	 0	
 434	-2.69312	-5.04549	-0.34551	1.000	 35	 0	
 435	-1.58860	-5.02237	-0.35603	1.000	 35	 0	
 436	-0.55178	-4.94202	-0.33342	1.000	 35	 0	
 437	-0.30011	-3.78364	-0.30698	1.000	 35	 0	
 438	 0.67774	-3.88128	-0.32639	1.000	 35	 0	
 439	 1.60948	-3.99191	-0.32755	1.000	 35	 0	
 440	 2.54271	-3.99173	-0.34648	1.000	 35	 0	
 441	 3.44604	-3.93826	-0.32973	1.000	 35	 0	
 442	 4.41418	-3.82148	-0.25836	1.000	 35	 0	
 443	 5.47506	-3.98853	-0.29454	1.000	 35	 0	
 444	 6.42929	-3.97324	-0.36104	1.000	 35	 0	
 445	 7.42951	-3.91776	-0.31367	1.000	 35	 0	
 446	 8.38253	-4.00125	-0.31291	1.000	 35	 0	
 447	 9.36483	-3.90769	-0.32577	1.000	 35	 0	
 448	 10.52998	-3.93378	-0.34813	1.000	 35	 0	
 449	 11.66401	-3.89560	-0.34745	1.000	 35	 0	
 450	-10.81789	-3.83434	-0.32967	1.000	 35	 0	
 451	-9.67922	-3.90250	-0.33709	1.000	 35	 0	
 452	-8.59602	-3.94870	-0.33114	1.000	 35	 0	
 453	-7.43429	-3.99834	-0.35231	1.000	 35	 0	
 454	-6.36724	-3.91846	-0.36805	1.000	 35	 0	
 455	-5.37226	-3.89751	-0.35271	1.000	 35	 0	
 456	-4.38296	-3.80859	-0.32832	1.000	 35	 0	
 457	-3.41448	-3.86582	-0.33872	1.000	 35	 0	
 458	-2.32838	-3.96299	-0.34297	1.000	 35	 0	
 459	-1.27489	-3.95420	-0.36287	1.000	 35	 0	
 460	 0.10861	-2.88711	-0.35336	1.000	 35	 0	
 461	 1.06928	-2.94648	-0.37836	1.000	 35	 0	
 462	 2.01041	-2.96224	-0.32096	1.000	 35	 0	
 463	 2.95393	-2.82288	-0.34778	1.000	 35	 0	
 464	 4.85931	-2.85067	-0.34544	1.000	 35	 0	
 465	 5.78409	-3.00388	-0.31458	1.000	 35	 0	
 466	 6.89988	-2.97543	-0.31603	1.000	 35	 0	
 467	 7.81054	-2.73442	-0.33221	1.000	 35	 0	
 468	 8.78530	-2.86348	-0.36958	1.000	 35	 0	
 469	 9.76287	-2.87267	-0.36088	1.000	 35	 0	
 470	 10.72073	-2.86442	-0.35507	1.000	 35	 0	
 471	 11.75453	-2.84101	-0.35293	1.000	 35	 0	
 472	-10.96236	-2.85306	-0.32992	1.000	 35	 0	
 473	-9.93248	-2.94715	-0.33918	1.000	 35	 0	
 474	-8.84865	-2.98891	-0.31978	1.000	 35	 0	
 475	-7.80244	-2.99984	-0.34416	1.000	 35	 0	
 476	-6.80333	-2.95450	-0.34438	1.000	 35	 0	
 477	-5.77218	-2.92412	-0.34395	1.000	 35	 0	
 478	-4.72739	-2.78068	-0.33592	1.000	 35	 0	
 479	-3.70113	-2.83090	-0.31493	1.000	 35	 0	
 480	-2.66956	-2.95452	-0.32603	1.000	 35	 0	
 481	-1.67512	-2.87417	-0.25799	1.000	 35	 0	
 482	-0.76261	-2.84456	-0.31933	1.000	 35	 0	
 483	 0.69325	-1.88802	-0.31010	1.000	 35	 0	
 484	 1.74281	-1.87887	-0.32602	1.000	 35	 0	
 485	 2.86560	-1.76648	-0.34336	1.000	 35	 0	
 486	 3.85002	-1.76265	-0.34101	1.000	 35	 0	
 487	 4.91278	-1.86023	-0.32693	1.000	 35	 0	
 488	 5.94654	-1.80730	-0.34243	1.000	 35	 0	
 489	 7.11241	-1.78357	-0.36686	1.000	 35	 0	
 490	 8.25982	-1.81250	-0.35716	1.000	 35	 0	
 491	 9.30114	-1.84344	-0.34194	1.000	 35	 0	
 492	 10.30559	-1.82603	-0.34580	1.000	 35	 0	
 493	 11.37790	-1.82857	-0.34373	1.000	 35	 0	
 494	-11.35192	-1.87789	-0.34589	1.000	 35	 0	
 495	-10.19375	-1.93721	-0.33999	1.000	 35	 0	
 496	-9.20188	-1.94319	-0.32682	1.000	 35	 0	
 497	-8.19095	-1.93959	-0.33191	1.000	 35	 0	
 498	-7.17558	-1.88826	-0.30591	1.000	 35	 0	
 499	-6.23751	-1.86699	-0.32447	1.000	 35	 0	
 500	-5.25822	-1.84057	-0.33690	1.000	 35	 0	
 501	-4.30807	-1.83402	-0.34841	1.000	 35	 0	
 502	-3.33039	-1.78347	-0.32603	1.000	 35	 0	
 503	-2.35484	-1.78983	-0.31346	1.000	 35	 0	
 504	-1.32069	-1.85844	-0.35588	1.000	 35	 0	
 505	-0.35418	-1.83137	-0.33611	1.000	 35	 0	
 506	-0.36063	-0.85728	-0.33189	1.000	 35	 0	
 507	 0.62675	-0.89835	-0.31450	1.000	 35	 0	
 508	 1.67656	-0.89277	-0.29665	1.000	 35	 0	
 509	 2.65819	-0.79548	-0.31441	1.000	 35	 0	
 510	 3.71773	-0.76368	-0.36846	1.000	 35	 0	
 511	 4.74259	-0.81219	-0.31555	1.000	 35	 0	
 512	 5.76851	-0.81350	-0.33588	1.000	 35	 0	
 513	 6.73554	-0.83634	-0.33182	1.000	 35	 0	
 514	 7.86794	-0.87076	-0.33894	1.000	 35	 0	
 515	 8.84710	-0.87429	-0.31538	1.000	 35	 0	
 516	 10.00397	-0.81365	-0.34304	1.000	 35	 0	
 517	 11.00866	-0.89400	-0.34674	1.000	 35	 0	
 518	-11.72006	-0.77864	-0.33421	1.000	 35	 0	
 519	-10.70216	-0.98417	-0.34737	1.000	 35	 0	
 520	-9.67138	-0.88688	-0.32887	1.000	 35	 0	
 521	-8.66648	-0.89673	-0.33994	1.000	 35	 0	
 522	-7.68188	-0.88724	-0.32229	1.000	 35	 0	
 523	-6.57538	-0.81359	-0.34834	1.000	 35	 0	
 524	-5.50338	-0.77371	-0.31137	1.000	 35	 0	
 525	-4.45969	-0.86030	-0.33899	1.000	 35	 0	
 526	-3.43401	-0.80914	-0.33577	1.000	 35	 0	
 527	-2.35518	-0.82459	-0.33128	1.000	 35	 0	
 528	-1.35485	-0.85109	-0.33524	1.000	 35	 0	
 529	 1.17936	 0.71084	 0.31703	1.000	 35	 0	
 530	 2.24704	 0.80448	 0.32136	1.000	 35	 0	
 531	 3.23909	 0.79088	 0.34875	1.000	 35	 0	
 532	 4.22793	 0.72866	 0.32794	1.000	 35	 0	
 533	 5.26981	 0.86764	 0.33980	1.000	 35	 0	
 534	 6.31751	 0.77277	 0.32780	1.000	 35	 0	
 535	 7.37215	 0.75538	 0.35524	1.000	 35	 0	
 536	 8.32356	 0.79538	 0.36494	1.000	 35	 0	
 537	 9.33864	 0.79677	 0.31462	1.000	 35	 0	
 538	 10.42672	 0.82074	 0.35534	1.000	 35	 0	
 539	 11.48403	 0.74009	 0.34873	1.000	 35	 0	
 540	-11.25756	 0.83378	 0.32962	1.000	 35	 0	
 541	-10.28461	 0.67345	 0.32809	1.000	 35	 0	
 542	-9.14920	 0.72881	 0.33881	1.000	 35	 0	
 543	-8.18053	 0.79817	 0.33775	1.000	 35	 0	
 544	-7.20997	 0.75025	 0.35819	1.000	 35	 0	
 545	-6.19339	 0.74159	 0.34675	1.000	 35	 0	
 546	-5.15639	 0.78254	 0.33684	1.000	 35	 0	
 547	-4.20365	 0.67535	 0.34168	1.000	 35	 0	
 548	-3.13661	 0.70275	 0.35473	1.000	 35	 0	
 549	-2.03916	 0.77411	 0.33662	1.000	 35	 0	
 550	-1.08603	 0.71491	 0.33716	1.000	 35	 0	
 551	 0.04424	 0.67865	 0.35513	1.000	 35	 0	
 552	-0.66283	 1.67867	 0.32945	1.000	 35	 0	
 553	 0.35380	 1.68374	 0.33945	1.000	 35	 0	
 554	 1.40640	 1.73039	 0.33593	1.000	 35	 0	
 555	 2.42015	 1.84500	 0.31575	1.000	 35	 0	
 556	 3.60417	 1.80220	 0.33272	1.000	 35	 0	
 557	 4.61607	 1.79132	 0.34014	1.000	 35	 0	
 558	 5.65114	 1.77974	 0.33635	1.000	 35	 0	
 559	 6.67398	 1.69712	 0.33393	1.000	 35	 0	
 560	 7.74028	 1.71696	 0.33038	1.000	 35	 0	
 561	 8.79324	 1.83185	 0.37177	1.000	 35	 0	
 562	 9.77920	 1.78109	 0.34547	1.000	 35	 0	
 563	 10.80901	 1.68862	 0.34059	1.000	 35	 0	
 564	 11.80672	 1.72310	 0.34917	1.000	 35	 0	
 565	-10.91274	 1.75423	 0.34186	1.000	 35	 0	
 566	-9.82582	 1.71761	 0.30487	1.000	 35	 0	
 567	-8.86236	 1.77125	 0.34934	1.000	 35	 0	
 568	-7.88627	 1.75587	 0.33738	1.000	 35	 0	
 569	-6.87758	 1.75045	 0.31962	1.000	 35	 0	
 570	-5.78336	 1.73575	 0.34668	1.000	 35	 0	
 571	-4.78846	 1.77624	 0.34119	1.000	 35	 0	
 572	-3.70870	 1.75417	 0.32538	1.000	 35	 0	
 573	-2.69083	 1.77837	 0.33408	1.000	 35	 0	
 574	-1.67008	 1.71781	 0.33402	1.000	 35	 0	
 575	-1.22543	 2.63053	 0.32452	1.000	 35	 0	
 576	-0.17626	 2.75816	 0.34008	1.000	 35	 0	
 577	 0.92143	 2.79296	 0.36534	1.000	 35	 0	
 578	 1.96744	 2.82028	 0.33514	1.000	 35	 0	
 579	 2.98298	 2.76867	 0.34535	1.000	 35	 0	
 580	 4.00194	 2.80376	 0.35844	1.000	 35	 0	
 581	 5.13534	 2.84515	 0.36550	1.000	 35	 0	
 582	 6.18920	 2.80997	 0.32635	1.000	 35	 0	
 583	 7.21475	 2.83027	 0.33072	1.000	 35	 0	
 584	 8.20476	 2.76954	 0.33413	1.000	 35	 0	
 585	 9.28533	 2.83861	 0.34704	1.000	 35	 0	
 586	 10.27333	 2.75203	 0.33157	1.000	 35	 0	
 587	 11.22128	 2.67737	 0.33629	1.000	 35	 0	
 588	-11.61328	 2.76774	 0.34490	1.000	 35	 0	
 589	-10.48074	 2.78260	 0.32084	1.000	 35	 0	
 590	-9.47438	 2.77728	 0.33091	1.000	 35	 0	
 591	-8.40892	 2.72583	 0.34693	1.000	 35	 0	
 592	-7.43023	 2.80596	 0.32935	1.000	 35	 0	
 593	-6.41190	 2.67464	 0.30664	1.000	 35	 0	
 594	-5.45149	 2.80384	 0.31204	1.000	 35	 0	
 595	-4.37106	 2.70571	 0.32167	1.000	 35	 0	
 596	-3.32961	 2.73333	 0.32747	1.000	 35	 0	
 597	-2.25737	 2.80454	 0.33064	1.000	 35	 0	
 598	-1.63966	 3.73762	 0.34224	1.000	 35	 0	
 599	-0.58936	 3.83439	 0.35217	1.000	 35	 0	
 600	 0.40439	 3.75514	 0.35434	1.000	 35	 0	
 601	 1.38449	 3.84777	 0.34509	1.000	 35	 0	
 602	 2.44093	 3.82004	 0.31889	1.000	 35	 0	
 603	 3.56241	 3.83225	 0.35570	1.000	 35	 0	
 604	 4.56888	 3.75871	 0.34657	1.000	 35	 0	
 605	 5.58132	 3.77147	 0.36218	1.000	 35	 0	
 606	 6.58780	 3.81508	 0.32453	1.000	 35	 0	
 607	 7.64763	 3.86538	 0.32995	1.000	 35	 0	
 608	 8.67914	 3.82661	 0.33569	1.000	 35	 0	
 609	 9.76278	 3.81038	 0.33957	1.000	 35	 0	
 610	 11.00247	 3.82660	 0.34163	1.000	 35	 0	
 611	-11.79433	 3.79703	 0.36621	1.000	 35	 0	
 612	-10.83091	 3.83681	 0.37013	1.000	 35	 0	
 613	-9.88079	 3.83608	 0.37253	1.000	 35	 0	
 614	-8.96961	 3.69623	 0.31353	1.000	 35	 0	
 615	-7.98267	 3.73474	 0.35752	1.000	 35	 0	
 616	-6.91985	 3.77420	 0.29494	1.000	 35	 0	
 617	-5.86473	 3.86317	 0.34123	1.000	 35	 0	
 618	-4.89305	 3.77314	 0.35122	1.000	 35	 0	
 619	-3.91674	 3.74218	 0.34466	1.000	 35	 0	
 620	-2.88488	 3.79763	 0.30815	1.000	 35	 0	
 621	-1.15237	 4.78900	 0.34978	1.000	 35	 0	
 622	-0.11399	 4.84298	 0.33067	1.000	 35	 0	
 623	 0.89832	 4.91601	 0.35035	1.000	 35	 0	
 624	 1.89838	 4.86228	 0.33046	1.000	 35	 0	
 625	 2.99348	 4.83893	 0.34344	1.000	 35	 0	
 626	 4.01193	 4.68747	 0.35105	1.000	 35	 0	
 627	 5.01783	 4.78495	 0.35269	1.000	 35	 0	
 628	 6.02439	 4.84033	 0.36975	1.000	 35	 0	
 629	 7.08153	 4.93191	 0.35158	1.000	 35	 0	
 630	 8.12306	 4.92753	 0.32241	1.000	 35	 0	
 631	 9.18876	 4.84868	 0.36724	1.000	 35	 0	
 632	 10.36951	 4.90856	 0.34102	1.000	 35	 0	
 633	 11.37197	 4.95135	 0.34323	1.000	 35	 0	
 634	-11.38802	 4.80910	 0.35196	1.000	 35	 0	
 635	-10.40326	 4.88530	 0.31829	1.000	 35	 0	
 636	-9.39192	 4.80531	 0.34913	1.000	 35	 0	
 637	-8.41402	 4.74724	 0.34543	1.000	 35	 0	
 638	-7.40984	 4.82811	 0.35045	1.000	 35	 0	
 639	-6.42312	 4.84347	 0.34938	1.000	 35	 0	
 640	-5.31703	 4.88608	 0.31879	1.000	 35	 0	
 641	-4.33228	 4.85547	 0.34031	1.000	 35	 0	
 642	-3.36106	 4.72013	 0.34656	1.000	 35	 0	