ITEM: TIMESTEP
90001
ITEM: BOX BOUNDS pp pp ff
-1.18930200e+01	 1.18930200e+01	
-1.18930200e+01	 1.18930200e+01	
-1.10000000e+00	 1.10000000e+00	
ITEM: NUMBER OF ATOMS
1058
ITEM: ATOMS index x y z diameter charge species
   0	-7.35560000e-01	 2.20100000e-01	-3.43120000e-01	1.000	 35	 0	
   1	 2.26860000e-01	 9.65900000e-02	-3.26330000e-01	1.000	 35	 0	
   2	 1.23949000e+00	 5.10700000e-02	-3.55380000e-01	1.000	 35	 0	
   3	 2.25222000e+00	 2.06190000e-01	-3.34030000e-01	1.000	 35	 0	
   4	 3.28319000e+00	 1.88680000e-01	-3.23070000e-01	1.000	 35	 0	
   5	 4.31105000e+00	 2.13340000e-01	-3.40900000e-01	1.000	 35	 0	
   6	 5.35688000e+00	 2.50670000e-01	-3.48190000e-01	1.000	 35	 0	
   7	 6.43004000e+00	 2.09060000e-01	-3.39380000e-01	1.000	 35	 0	
   8	 7.36478000e+00	 1.58140000e-01	-3.07510000e-01	1.000	 35	 0	
   9	 8.49083000e+00	 1.93160000e-01	-3.44560000e-01	1.000	 35	 0	
  10	 9.54995000e+00	 2.07240000e-01	-3.67310000e-01	1.000	 35	 0	
  11	 1.05501200e+01	 2.08960000e-01	-3.21540000e-01	1.000	 35	 0	
  12	 1.15530900e+01	 1.21250000e-01	-3.46690000e-01	1.000	 35	 0	
  13	-1.12181300e+01	 2.24870000e-01	-3.01610000e-01	1.000	 35	 0	
  14	-1.02058600e+01	 8.34000000e-02	-3.46110000e-01	1.000	 35	 0	
  15	-9.10080000e+00	 1.17610000e-01	-3.56050000e-01	1.000	 35	 0	
  16	-8.08424000e+00	 2.43370000e-01	-3.48350000e-01	1.000	 35	 0	
  17	-7.04710000e+00	 2.34650000e-01	-3.56020000e-01	1.000	 35	 0	
  18	-5.99422000e+00	 2.27930000e-01	-3.49690000e-01	1.000	 35	 0	
  19	-4.98604000e+00	 1.92440000e-01	-3.48140000e-01	1.000	 35	 0	
  20	-3.94920000e+00	 1.53780000e-01	-3.53900000e-01	1.000	 35	 0	
  21	-2.80872000e+00	 2.53980000e-01	-3.47290000e-01	1.000	 35	 0	
  22	-1.78910000e+00	 1.67260000e-01	-3.23620000e-01	1.000	 35	 0	
  23	-6.78300000e-02	 1.21773000e+00	-3.49840000e-01	1.000	 35	 0	
  24	 9.88240000e-01	 1.28923000e+00	-3.54930000e-01	1.000	 35	 0	
  25	 1.98203000e+00	 1.39641000e+00	-3.58340000e-01	1.000	 35	 0	
  26	 3.01678000e+00	 1.35527000e+00	-3.29050000e-01	1.000	 35	 0	
  27	 4.05545000e+00	 1.29263000e+00	-3.44420000e-01	1.000	 35	 0	
  28	 5.06362000e+00	 1.41672000e+00	-3.62540000e-01	1.000	 35	 0	
  29	 6.10840000e+00	 1.24139000e+00	-3.66210000e-01	1.000	 35	 0	
  30	 7.09317000e+00	 1.21096000e+00	-3.38610000e-01	1.000	 35	 0	
  31	 8.07571000e+00	 1.24992000e+00	-3.55830000e-01	1.000	 35	 0	
  32	 9.03764000e+00	 1.33415000e+00	-3.39220000e-01	1.000	 35	 0	
  33	 1.01320900e+01	 1.23291000e+00	-3.65260000e-01	1.000	 35	 0	
  34	 1.11288800e+01	 1.17435000e+00	-3.24720000e-01	1.000	 35	 0	
  35	-1.16278300e+01	 1.26287000e+00	-3.70850000e-01	1.000	 35	 0	
  36	-1.05800800e+01	 1.24368000e+00	-3.39780000e-01	1.000	 35	 0	
  37	-9.55838000e+00	 1.09134000e+00	-3.41080000e-01	1.000	 35	 0	
  38	-8.47147000e+00	 1.30200000e+00	-3.34790000e-01	1.000	 35	 0	
  39	-7.47870000e+00	 1.23277000e+00	-3.55470000e-01	1.000	 35	 0	
  40	-6.47561000e+00	 1.22626000e+00	-3.29590000e-01	1.000	 35	 0	
  41	-5.41154000e+00	 1.24903000e+00	-3.32390000e-01	1.000	 35	 0	
  42	-4.39239000e+00	 1.22887000e+00	-3.25820000e-01	1.000	 35	 0	
  43	-3.27015000e+00	 1.27618000e+00	-3.23110000e-01	1.000	 35	 0	
  44	-2.21249000e+00	 1.26440000e+00	-3.40780000e-01	1.000	 35	 0	
  45	-1.18841000e+00	 1.28937000e+00	-3.50960000e-01	1.000	 35	 0	
  46	 3.81060000e-01	 2.33640000e+00	-3.34010000e-01	1.000	 35	 0	
  47	 1.42592000e+00	 2.46362000e+00	-3.03230000e-01	1.000	 35	 0	
  48	 2.42497000e+00	 2.40204000e+00	-3.51840000e-01	1.000	 35	 0	
  49	 3.41970000e+00	 2.37092000e+00	-3.34740000e-01	1.000	 35	 0	
  50	 4.41572000e+00	 2.36620000e+00	-3.51170000e-01	1.000	 35	 0	
  51	 5.44998000e+00	 2.37055000e+00	-3.19710000e-01	1.000	 35	 0	
  52	 6.46134000e+00	 2.27204000e+00	-3.32390000e-01	1.000	 35	 0	
  53	 7.49751000e+00	 2.27417000e+00	-3.07260000e-01	1.000	 35	 0	
  54	 8.48968000e+00	 2.24189000e+00	-3.63180000e-01	1.000	 35	 0	
  55	 9.57617000e+00	 2.31151000e+00	-3.34470000e-01	1.000	 35	 0	
  56	 1.05672500e+01	 2.18279000e+00	-3.36930000e-01	1.000	 35	 0	
  57	 1.16034700e+01	 2.23016000e+00	-3.48990000e-01	1.000	 35	 0	
  58	-1.11269700e+01	 2.34165000e+00	-3.31710000e-01	1.000	 35	 0	
  59	-1.00882100e+01	 2.27376000e+00	-3.27550000e-01	1.000	 35	 0	
  60	-9.08422000e+00	 2.29707000e+00	-3.22840000e-01	1.000	 35	 0	
  61	-7.97531000e+00	 2.32405000e+00	-3.47880000e-01	1.000	 35	 0	
  62	-7.00622000e+00	 2.36249000e+00	-3.64790000e-01	1.000	 35	 0	
  63	-6.05109000e+00	 2.19461000e+00	-3.49190000e-01	1.000	 35	 0	
  64	-4.99748000e+00	 2.31752000e+00	-3.25120000e-01	1.000	 35	 0	
  65	-3.99518000e+00	 2.21063000e+00	-3.55700000e-01	1.000	 35	 0	
  66	-2.82149000e+00	 2.34866000e+00	-3.52480000e-01	1.000	 35	 0	
  67	-1.76699000e+00	 2.37149000e+00	-3.60360000e-01	1.000	 35	 0	
  68	-6.34030000e-01	 2.25820000e+00	-3.48900000e-01	1.000	 35	 0	
  69	 1.88802000e+00	 3.45550000e+00	-3.37840000e-01	1.000	 35	 0	
  70	 2.95386000e+00	 3.38910000e+00	-3.07100000e-01	1.000	 35	 0	
  71	 3.96382000e+00	 3.37856000e+00	-3.43640000e-01	1.000	 35	 0	
  72	 4.98476000e+00	 3.39267000e+00	-3.56570000e-01	1.000	 35	 0	
  73	 6.02226000e+00	 3.34598000e+00	-3.56720000e-01	1.000	 35	 0	
  74	 6.98143000e+00	 3.36684000e+00	-3.40920000e-01	1.000	 35	 0	
  75	 7.94902000e+00	 3.32770000e+00	-3.12380000e-01	1.000	 35	 0	
  76	 8.94138000e+00	 3.25307000e+00	-3.42610000e-01	1.000	 35	 0	
  77	 9.96472000e+00	 3.26238000e+00	-3.56520000e-01	1.000	 35	 0	
  78	 1.09138300e+01	 3.23285000e+00	-3.22480000e-01	1.000	 35	 0	
  79	-1.18637800e+01	 3.23698000e+00	-3.68350000e-01	1.000	 35	 0	
  80	-1.08621600e+01	 3.26062000e+00	-3.15310000e-01	1.000	 35	 0	
  81	-9.71965000e+00	 3.29799000e+00	-3.50790000e-01	1.000	 35	 0	
  82	-8.61472000e+00	 3.20738000e+00	-3.57740000e-01	1.000	 35	 0	
  83	-7.54094000e+00	 3.33410000e+00	-3.32020000e-01	1.000	 35	 0	
  84	-6.38562000e+00	 3.28871000e+00	-3.42000000e-01	1.000	 35	 0	
  85	-5.33944000e+00	 3.41517000e+00	-3.52910000e-01	1.000	 35	 0	
  86	-4.34493000e+00	 3.28661000e+00	-3.39080000e-01	1.000	 35	 0	
  87	-3.35710000e+00	 3.33616000e+00	-3.48800000e-01	1.000	 35	 0	
  88	-2.24917000e+00	 3.45137000e+00	-3.49770000e-01	1.000	 35	 0	
  89	-1.20232000e+00	 3.26202000e+00	-3.22030000e-01	1.000	 35	 0	
  90	-2.54350000e-01	 3.34127000e+00	-3.45670000e-01	1.000	 35	 0	
  91	 7.95480000e-01	 3.30032000e+00	-3.47160000e-01	1.000	 35	 0	
  92	 2.36008000e+00	 4.39895000e+00	-3.23060000e-01	1.000	 35	 0	
  93	 3.37128000e+00	 4.36456000e+00	-3.48060000e-01	1.000	 35	 0	
  94	 4.50446000e+00	 4.33816000e+00	-3.52250000e-01	1.000	 35	 0	
  95	 5.52931000e+00	 4.35768000e+00	-3.43400000e-01	1.000	 35	 0	
  96	 6.53532000e+00	 4.42797000e+00	-3.41910000e-01	1.000	 35	 0	
  97	 7.48892000e+00	 4.43641000e+00	-3.41520000e-01	1.000	 35	 0	
  98	 8.46313000e+00	 4.35342000e+00	-3.17820000e-01	1.000	 35	 0	
  99	 9.37479000e+00	 4.27446000e+00	-3.42070000e-01	1.000	 35	 0	
 100	 1.02758400e+01	 4.24090000e+00	-2.95400000e-01	1.000	 35	 0	
 101	 1.11941000e+01	 4.39547000e+00	-3.55460000e-01	1.000	 35	 0	
 102	-1.17062400e+01	 4.36998000e+00	-3.49130000e-01	1.000	 35	 0	
 103	-1.07756300e+01	 4.40333000e+00	-3.54630000e-01	1.000	 35	 0	
 104	-8.87776000e+00	 4.28461000e+00	-3.18690000e-01	1.000	 35	 0	
 105	-7.88677000e+00	 4.33611000e+00	-3.44820000e-01	1.000	 35	 0	
 106	-6.87610000e+00	 4.39832000e+00	-3.31230000e-01	1.000	 35	 0	
 107	-5.87994000e+00	 4.45407000e+00	-3.27210000e-01	1.000	 35	 0	
 108	-4.78849000e+00	 4.37034000e+00	-3.27460000e-01	1.000	 35	 0	
 109	-3.76209000e+00	 4.33128000e+00	-3.40750000e-01	1.000	 35	 0	
 110	-2.76414000e+00	 4.43629000e+00	-3.23970000e-01	1.000	 35	 0	
 111	-1.74721000e+00	 4.37629000e+00	-3.46510000e-01	1.000	 35	 0	
 112	-8.33860000e-01	 4.30103000e+00	-3.60170000e-01	1.000	 35	 0	
 113	 3.05180000e-01	 4.34160000e+00	-3.24840000e-01	1.000	 35	 0	
 114	 1.33786000e+00	 4.41822000e+00	-3.49730000e-01	1.000	 35	 0	
 115	 1.79762000e+00	 5.46084000e+00	-3.40430000e-01	1.000	 35	 0	
 116	 2.85207000e+00	 5.41734000e+00	-3.23130000e-01	1.000	 35	 0	
 117	 3.87778000e+00	 5.29339000e+00	-3.28700000e-01	1.000	 35	 0	
 118	 4.84959000e+00	 5.32513000e+00	-3.28440000e-01	1.000	 35	 0	
 119	 5.83826000e+00	 5.36617000e+00	-3.52250000e-01	1.000	 35	 0	
 120	 6.89151000e+00	 5.44498000e+00	-3.13060000e-01	1.000	 35	 0	
 121	 7.95797000e+00	 5.44374000e+00	-3.60550000e-01	1.000	 35	 0	
 122	 8.90836000e+00	 5.35811000e+00	-3.65090000e-01	1.000	 35	 0	
 123	 9.88583000e+00	 5.25642000e+00	-3.37460000e-01	1.000	 35	 0	
 124	 1.09759000e+01	 5.39392000e+00	-3.59050000e-01	1.000	 35	 0	
 125	-1.16572400e+01	 5.35248000e+00	-3.35120000e-01	1.000	 35	 0	
 126	-9.83381000e+00	 4.39753000e+00	-3.53510000e-01	1.000	 35	 0	
 127	-9.62913000e+00	 5.39356000e+00	-3.38910000e-01	1.000	 35	 0	
 128	-8.64284000e+00	 5.30656000e+00	-3.27690000e-01	1.000	 35	 0	
 129	-7.60362000e+00	 5.38003000e+00	-3.43980000e-01	1.000	 35	 0	
 130	-6.59722000e+00	 5.40230000e+00	-3.31540000e-01	1.000	 35	 0	
 131	-5.60307000e+00	 5.49502000e+00	-3.14730000e-01	1.000	 35	 0	
 132	-4.46533000e+00	 5.43026000e+00	-3.44970000e-01	1.000	 35	 0	
 133	-3.39559000e+00	 5.40056000e+00	-3.10360000e-01	1.000	 35	 0	
 134	-2.34628000e+00	 5.37260000e+00	-3.40130000e-01	1.000	 35	 0	
 135	-1.36433000e+00	 5.34696000e+00	-3.38700000e-01	1.000	 35	 0	
 136	-4.35100000e-01	 5.34606000e+00	-3.48630000e-01	1.000	 35	 0	
 137	 6.79840000e-01	 5.38519000e+00	-3.63830000e-01	1.000	 35	 0	
 138	 1.37350000e-01	 6.36131000e+00	-3.52320000e-01	1.000	 35	 0	
 139	 1.14315000e+00	 6.43584000e+00	-3.51330000e-01	1.000	 35	 0	
 140	 2.22838000e+00	 6.44410000e+00	-3.34070000e-01	1.000	 35	 0	
 141	 3.26760000e+00	 6.37494000e+00	-3.72850000e-01	1.000	 35	 0	
 142	 4.26395000e+00	 6.35978000e+00	-3.64020000e-01	1.000	 35	 0	
 143	 5.22895000e+00	 6.28410000e+00	-3.47270000e-01	1.000	 35	 0	
 144	 6.32936000e+00	 6.36070000e+00	-3.41380000e-01	1.000	 35	 0	
 145	 7.38130000e+00	 6.44332000e+00	-3.42380000e-01	1.000	 35	 0	
 146	 9.39777000e+00	 6.34122000e+00	-3.51320000e-01	1.000	 35	 0	
 147	 1.04497300e+01	 6.33544000e+00	-3.40830000e-01	1.000	 35	 0	
 148	 1.14654000e+01	 6.42575000e+00	-3.03060000e-01	1.000	 35	 0	
 149	-1.12052000e+01	 6.51425000e+00	-3.52270000e-01	1.000	 35	 0	
 150	-1.06637300e+01	 5.44462000e+00	-3.58440000e-01	1.000	 35	 0	
 151	-1.00866600e+01	 6.42976000e+00	-3.33200000e-01	1.000	 35	 0	
 152	-9.06107000e+00	 6.38386000e+00	-3.17790000e-01	1.000	 35	 0	
 153	-8.01952000e+00	 6.37299000e+00	-3.55490000e-01	1.000	 35	 0	
 154	-6.99671000e+00	 6.40329000e+00	-3.41340000e-01	1.000	 35	 0	
 155	-5.95741000e+00	 6.50730000e+00	-3.47780000e-01	1.000	 35	 0	
 156	-4.91206000e+00	 6.55030000e+00	-3.41210000e-01	1.000	 35	 0	
 157	-3.88830000e+00	 6.47243000e+00	-2.97870000e-01	1.000	 35	 0	
 158	-2.88322000e+00	 6.38502000e+00	-3.65030000e-01	1.000	 35	 0	
 159	-1.87210000e+00	 6.38048000e+00	-3.58630000e-01	1.000	 35	 0	
 160	-9.21990000e-01	 6.25214000e+00	-3.55460000e-01	1.000	 35	 0	
 161	-3.67190000e-01	 7.42265000e+00	-3.30060000e-01	1.000	 35	 0	
 162	 6.22520000e-01	 7.43384000e+00	-3.10750000e-01	1.000	 35	 0	
 163	 1.63440000e+00	 7.45806000e+00	-3.67640000e-01	1.000	 35	 0	
 164	 2.84536000e+00	 7.33669000e+00	-3.64950000e-01	1.000	 35	 0	
 165	 3.88277000e+00	 7.36138000e+00	-3.28150000e-01	1.000	 35	 0	
 166	 4.92241000e+00	 7.46804000e+00	-3.19020000e-01	1.000	 35	 0	
 167	 5.89008000e+00	 7.43390000e+00	-3.37440000e-01	1.000	 35	 0	
 168	 6.89202000e+00	 7.33795000e+00	-3.45170000e-01	1.000	 35	 0	
 169	 7.92860000e+00	 7.42365000e+00	-3.72970000e-01	1.000	 35	 0	
 170	 8.93582000e+00	 7.36818000e+00	-3.25350000e-01	1.000	 35	 0	
 171	 1.00560100e+01	 7.32066000e+00	-3.56010000e-01	1.000	 35	 0	
 172	 1.11520500e+01	 7.28839000e+00	-2.75510000e-01	1.000	 35	 0	
 173	-1.16024200e+01	 7.45670000e+00	-3.47630000e-01	1.000	 35	 0	
 174	-1.05788200e+01	 7.47980000e+00	-3.56140000e-01	1.000	 35	 0	
 175	-9.53902000e+00	 7.44986000e+00	-3.25910000e-01	1.000	 35	 0	
 176	-8.51898000e+00	 7.36421000e+00	-3.55100000e-01	1.000	 35	 0	
 177	-7.55695000e+00	 7.37378000e+00	-3.53440000e-01	1.000	 35	 0	
 178	-6.51488000e+00	 7.46286000e+00	-3.39670000e-01	1.000	 35	 0	
 179	-5.43611000e+00	 7.48621000e+00	-3.50900000e-01	1.000	 35	 0	
 180	-4.37682000e+00	 7.57038000e+00	-3.09570000e-01	1.000	 35	 0	
 181	-3.37867000e+00	 7.40637000e+00	-3.10800000e-01	1.000	 35	 0	
 182	-2.42115000e+00	 7.33608000e+00	-3.38670000e-01	1.000	 35	 0	
 183	-1.45761000e+00	 7.33360000e+00	-3.48550000e-01	1.000	 35	 0	
 184	 1.82810000e-01	 8.38446000e+00	-3.26070000e-01	1.000	 35	 0	
 185	 1.18867000e+00	 8.46776000e+00	-3.32330000e-01	1.000	 35	 0	
 186	 2.18442000e+00	 8.50186000e+00	-3.37540000e-01	1.000	 35	 0	
 187	 3.23773000e+00	 8.37343000e+00	-3.30750000e-01	1.000	 35	 0	
 188	 4.20436000e+00	 8.42801000e+00	-3.26450000e-01	1.000	 35	 0	
 189	 5.22783000e+00	 8.48922000e+00	-3.05160000e-01	1.000	 35	 0	
 190	 6.30481000e+00	 8.32812000e+00	-3.73250000e-01	1.000	 35	 0	
 191	 7.31346000e+00	 8.44604000e+00	-3.32950000e-01	1.000	 35	 0	
 192	 8.31723000e+00	 8.42144000e+00	-3.12000000e-01	1.000	 35	 0	
 193	 9.41245000e+00	 8.36236000e+00	-3.04830000e-01	1.000	 35	 0	
 194	 1.04108300e+01	 8.31749000e+00	-3.42020000e-01	1.000	 35	 0	
 195	 1.13990300e+01	 8.41767000e+00	-3.66500000e-01	1.000	 35	 0	
 196	-1.11402300e+01	 8.46483000e+00	-3.13320000e-01	1.000	 35	 0	
 197	-1.00330900e+01	 8.48745000e+00	-3.28090000e-01	1.000	 35	 0	
 198	-8.93836000e+00	 8.44824000e+00	-2.92260000e-01	1.000	 35	 0	
 199	-7.93776000e+00	 8.46294000e+00	-3.23890000e-01	1.000	 35	 0	
 200	-6.98030000e+00	 8.46300000e+00	-3.22450000e-01	1.000	 35	 0	
 201	-5.97140000e+00	 8.48720000e+00	-3.45710000e-01	1.000	 35	 0	
 202	-4.93054000e+00	 8.50883000e+00	-3.40900000e-01	1.000	 35	 0	
 203	-3.89033000e+00	 8.55586000e+00	-3.20290000e-01	1.000	 35	 0	
 204	-2.87613000e+00	 8.46039000e+00	-3.39050000e-01	1.000	 35	 0	
 205	-1.82413000e+00	 8.44671000e+00	-3.34480000e-01	1.000	 35	 0	
 206	-8.36150000e-01	 8.44884000e+00	-3.29560000e-01	1.000	 35	 0	
 207	-3.58670000e-01	 9.33322000e+00	-3.24050000e-01	1.000	 35	 0	
 208	 6.10530000e-01	 9.49570000e+00	-3.07480000e-01	1.000	 35	 0	
 209	 1.54089000e+00	 9.50789000e+00	-3.32340000e-01	1.000	 35	 0	
 210	 2.41273000e+00	 9.59705000e+00	-3.39310000e-01	1.000	 35	 0	
 211	 3.29970000e+00	 9.51815000e+00	-3.01030000e-01	1.000	 35	 0	
 212	 4.25617000e+00	 9.54376000e+00	-3.20220000e-01	1.000	 35	 0	
 213	 5.24508000e+00	 9.65184000e+00	-3.28560000e-01	1.000	 35	 0	
 214	 6.30950000e+00	 9.51779000e+00	-2.90990000e-01	1.000	 35	 0	
 215	 7.33656000e+00	 9.57750000e+00	-3.34000000e-01	1.000	 35	 0	
 216	 8.31419000e+00	 9.52176000e+00	-3.55490000e-01	1.000	 35	 0	
 217	 9.38974000e+00	 9.50582000e+00	-3.33990000e-01	1.000	 35	 0	
 218	 1.04729700e+01	 9.41955000e+00	-3.45700000e-01	1.000	 35	 0	
 219	-1.17540900e+01	 9.41506000e+00	-3.45960000e-01	1.000	 35	 0	
 220	-1.06038900e+01	 9.45114000e+00	-3.38940000e-01	1.000	 35	 0	
 221	-9.54397000e+00	 9.46858000e+00	-3.43500000e-01	1.000	 35	 0	
 222	-8.49642000e+00	 9.51974000e+00	-3.32480000e-01	1.000	 35	 0	
 223	-7.46647000e+00	 9.50694000e+00	-3.55130000e-01	1.000	 35	 0	
 224	-6.48656000e+00	 9.46974000e+00	-3.62590000e-01	1.000	 35	 0	
 225	-5.52073000e+00	 9.52549000e+00	-3.41880000e-01	1.000	 35	 0	
 226	-4.48043000e+00	 9.49177000e+00	-3.36910000e-01	1.000	 35	 0	
 227	-3.34077000e+00	 9.62279000e+00	-3.55770000e-01	1.000	 35	 0	
 228	-2.38250000e+00	 9.42494000e+00	-3.36350000e-01	1.000	 35	 0	
 229	-1.40347000e+00	 9.50629000e+00	-3.45380000e-01	1.000	 35	 0	
 230	-8.61510000e-01	 1.05214700e+01	-3.35740000e-01	1.000	 35	 0	
 231	 1.39270000e-01	 1.05912000e+01	-3.68040000e-01	1.000	 35	 0	
 232	 1.23280000e+00	 1.06353200e+01	-3.45830000e-01	1.000	 35	 0	
 233	 2.22820000e+00	 1.06097600e+01	-3.41580000e-01	1.000	 35	 0	
 234	 3.24094000e+00	 1.06382100e+01	-3.24390000e-01	1.000	 35	 0	
 235	 4.30424000e+00	 1.06173700e+01	-2.96990000e-01	1.000	 35	 0	
 236	 5.30019000e+00	 1.06613500e+01	-2.95940000e-01	1.000	 35	 0	
 237	 6.29965000e+00	 1.06003300e+01	-3.31730000e-01	1.000	 35	 0	
 238	 7.30957000e+00	 1.05523000e+01	-2.77020000e-01	1.000	 35	 0	
 239	 8.35108000e+00	 1.05897800e+01	-3.04210000e-01	1.000	 35	 0	
 240	 9.32866000e+00	 1.04767200e+01	-3.31800000e-01	1.000	 35	 0	
 241	 1.05204200e+01	 1.04923900e+01	-3.19000000e-01	1.000	 35	 0	
 242	 1.15523200e+01	 1.05686400e+01	-3.19210000e-01	1.000	 35	 0	
 243	-1.12267400e+01	 1.04687500e+01	-3.57960000e-01	1.000	 35	 0	
 244	-1.02076400e+01	 1.04400600e+01	-3.50140000e-01	1.000	 35	 0	
 245	-9.21257000e+00	 1.04636100e+01	-3.57180000e-01	1.000	 35	 0	
 246	-8.07557000e+00	 1.05285500e+01	-3.33800000e-01	1.000	 35	 0	
 247	-7.12151000e+00	 1.05266300e+01	-3.48460000e-01	1.000	 35	 0	
 248	-6.01996000e+00	 1.05795700e+01	-3.51020000e-01	1.000	 35	 0	
 249	-4.97692000e+00	 1.06062100e+01	-3.33070000e-01	1.000	 35	 0	
 250	-3.89354000e+00	 1.06471500e+01	-3.29730000e-01	1.000	 35	 0	
 251	-2.93849000e+00	 1.06683800e+01	-3.49500000e-01	1.000	 35	 0	
 252	-1.88724000e+00	 1.06778900e+01	-3.26870000e-01	1.000	 35	 0	
 253	-2.18380000e-01	 1.15818200e+01	-3.71260000e-01	1.000	 35	 0	
 254	 8.55670000e-01	 1.16326100e+01	-3.54260000e-01	1.000	 35	 0	
 255	 1.99734000e+00	 1.16035000e+01	-3.25350000e-01	1.000	 35	 0	
 256	 3.05118000e+00	 1.17084500e+01	-3.36800000e-01	1.000	 35	 0	
 257	 4.13135000e+00	 1.16243400e+01	-3.67020000e-01	1.000	 35	 0	
 258	 5.31474000e+00	 1.17017300e+01	-3.25150000e-01	1.000	 35	 0	
 259	 6.33862000e+00	 1.16089200e+01	-3.08720000e-01	1.000	 35	 0	
 260	 7.32723000e+00	 1.16126800e+01	-3.48690000e-01	1.000	 35	 0	
 261	 8.37861000e+00	 1.15727600e+01	-3.47190000e-01	1.000	 35	 0	
 262	 9.33297000e+00	 1.14727500e+01	-3.07760000e-01	1.000	 35	 0	
 263	 1.02848200e+01	 1.14602400e+01	-3.31310000e-01	1.000	 35	 0	
 264	 1.12026400e+01	 1.16175700e+01	-3.43020000e-01	1.000	 35	 0	
 265	-1.15120900e+01	 1.14537300e+01	-3.54690000e-01	1.000	 35	 0	
 266	-1.05465100e+01	 1.15901900e+01	-3.59730000e-01	1.000	 35	 0	
 267	-9.57448000e+00	 1.15649900e+01	-3.22180000e-01	1.000	 35	 0	
 268	-8.56149000e+00	 1.14500200e+01	-3.69520000e-01	1.000	 35	 0	
 269	-7.41921000e+00	 1.15872100e+01	-3.60550000e-01	1.000	 35	 0	
 270	-6.42273000e+00	 1.16571600e+01	-3.16320000e-01	1.000	 35	 0	
 271	-5.39846000e+00	 1.16973000e+01	-3.38900000e-01	1.000	 35	 0	
 272	-4.42225000e+00	 1.16051600e+01	-3.48880000e-01	1.000	 35	 0	
 273	-3.40116000e+00	 1.16852900e+01	-3.35620000e-01	1.000	 35	 0	
 274	-2.41642000e+00	 1.16555100e+01	-3.46200000e-01	1.000	 35	 0	
 275	-1.26978000e+00	 1.16333100e+01	-3.36890000e-01	1.000	 35	 0	
 276	 2.90610000e-01	-1.12652000e+01	-3.55560000e-01	1.000	 35	 0	
 277	 1.58767000e+00	-1.12114200e+01	-3.62750000e-01	1.000	 35	 0	
 278	 2.61294000e+00	-1.10913400e+01	-3.22580000e-01	1.000	 35	 0	
 279	 3.70123000e+00	-1.11346900e+01	-3.57940000e-01	1.000	 35	 0	
 280	 4.69458000e+00	-1.12232000e+01	-3.77860000e-01	1.000	 35	 0	
 281	 5.68860000e+00	-1.11538500e+01	-3.35260000e-01	1.000	 35	 0	
 282	 6.73768000e+00	-1.11410200e+01	-3.64520000e-01	1.000	 35	 0	
 283	 7.80523000e+00	-1.11601400e+01	-3.50800000e-01	1.000	 35	 0	
 284	 8.76935000e+00	-1.12507800e+01	-3.63860000e-01	1.000	 35	 0	
 285	 9.84394000e+00	-1.13172700e+01	-3.29590000e-01	1.000	 35	 0	
 286	 1.08015400e+01	-1.11966000e+01	-3.53780000e-01	1.000	 35	 0	
 287	 1.17614700e+01	-1.13044700e+01	-3.23510000e-01	1.000	 35	 0	
 288	-1.11092300e+01	-1.12489100e+01	-2.87440000e-01	1.000	 35	 0	
 289	-1.01448100e+01	-1.11762300e+01	-3.18280000e-01	1.000	 35	 0	
 290	-9.17290000e+00	-1.11734000e+01	-3.52400000e-01	1.000	 35	 0	
 291	-8.23860000e+00	-1.12649600e+01	-3.30260000e-01	1.000	 35	 0	
 292	-7.16923000e+00	-1.11332900e+01	-3.36160000e-01	1.000	 35	 0	
 293	-6.16509000e+00	-1.10910100e+01	-3.46460000e-01	1.000	 35	 0	
 294	-5.13583000e+00	-1.10748200e+01	-3.19720000e-01	1.000	 35	 0	
 295	-4.09068000e+00	-1.10366300e+01	-3.37670000e-01	1.000	 35	 0	
 296	-3.12647000e+00	-1.10111000e+01	-3.28020000e-01	1.000	 35	 0	
 297	-1.94080000e+00	-1.11557100e+01	-3.29140000e-01	1.000	 35	 0	
 298	-8.11430000e-01	-1.12137300e+01	-3.58890000e-01	1.000	 35	 0	
 299	 1.28837000e+00	-1.00587100e+01	-3.13850000e-01	1.000	 35	 0	
 300	 2.26430000e+00	-1.00427900e+01	-3.64080000e-01	1.000	 35	 0	
 301	 3.27575000e+00	-1.01207900e+01	-3.54310000e-01	1.000	 35	 0	
 302	 4.33119000e+00	-1.00884000e+01	-3.25800000e-01	1.000	 35	 0	
 303	 5.33484000e+00	-1.01086200e+01	-3.27680000e-01	1.000	 35	 0	
 304	 6.36461000e+00	-1.00884800e+01	-3.53750000e-01	1.000	 35	 0	
 305	 7.40048000e+00	-1.01403400e+01	-3.40300000e-01	1.000	 35	 0	
 306	 8.41053000e+00	-1.02221900e+01	-3.24700000e-01	1.000	 35	 0	
 307	 9.35887000e+00	-1.03438400e+01	-3.51720000e-01	1.000	 35	 0	
 308	 1.04416800e+01	-1.01883000e+01	-3.51070000e-01	1.000	 35	 0	
 309	 1.14656200e+01	-1.02493200e+01	-3.17330000e-01	1.000	 35	 0	
 310	-1.12898500e+01	-1.02278100e+01	-3.41880000e-01	1.000	 35	 0	
 311	-1.02803700e+01	-1.01929100e+01	-3.16660000e-01	1.000	 35	 0	
 312	-9.14860000e+00	-1.01053900e+01	-3.29240000e-01	1.000	 35	 0	
 313	-8.02498000e+00	-1.01990600e+01	-3.21660000e-01	1.000	 35	 0	
 314	-7.04490000e+00	-1.00810500e+01	-3.26610000e-01	1.000	 35	 0	
 315	-5.97179000e+00	-1.00287000e+01	-3.52500000e-01	1.000	 35	 0	
 316	-4.86595000e+00	-1.00599400e+01	-3.42020000e-01	1.000	 35	 0	
 317	-3.80331000e+00	-1.00103500e+01	-3.37820000e-01	1.000	 35	 0	
 318	-2.86950000e+00	-1.00281600e+01	-3.37410000e-01	1.000	 35	 0	
 319	-1.79583000e+00	-1.01798300e+01	-3.25240000e-01	1.000	 35	 0	
 320	-7.64080000e-01	-1.00994400e+01	-3.37050000e-01	1.000	 35	 0	
 321	 2.71230000e-01	-1.01784700e+01	-3.23800000e-01	1.000	 35	 0	
 322	 5.96070000e-01	-9.17388000e+00	-3.50140000e-01	1.000	 35	 0	
 323	 1.52386000e+00	-9.01447000e+00	-3.32080000e-01	1.000	 35	 0	
 324	 2.49439000e+00	-9.04104000e+00	-3.30130000e-01	1.000	 35	 0	
 325	 3.49840000e+00	-9.13643000e+00	-3.52910000e-01	1.000	 35	 0	
 326	 4.65867000e+00	-9.15248000e+00	-3.45820000e-01	1.000	 35	 0	
 327	 5.71389000e+00	-9.08057000e+00	-3.65300000e-01	1.000	 35	 0	
 328	 6.74112000e+00	-9.07649000e+00	-3.55950000e-01	1.000	 35	 0	
 329	 7.66200000e+00	-9.22351000e+00	-3.00280000e-01	1.000	 35	 0	
 330	 8.59006000e+00	-9.05531000e+00	-3.38870000e-01	1.000	 35	 0	
 331	 9.57140000e+00	-9.19771000e+00	-3.43060000e-01	1.000	 35	 0	
 332	 1.06188600e+01	-9.09186000e+00	-3.40410000e-01	1.000	 35	 0	
 333	 1.15259800e+01	-9.04835000e+00	-3.24040000e-01	1.000	 35	 0	
 334	-1.12758500e+01	-9.07823000e+00	-3.11490000e-01	1.000	 35	 0	
 335	-1.00981900e+01	-9.08286000e+00	-3.45990000e-01	1.000	 35	 0	
 336	-9.05684000e+00	-9.11693000e+00	-3.50580000e-01	1.000	 35	 0	
 337	-7.86210000e+00	-9.17011000e+00	-3.54560000e-01	1.000	 35	 0	
 338	-6.67379000e+00	-9.03070000e+00	-3.48430000e-01	1.000	 35	 0	
 339	-5.23824000e+00	-9.03109000e+00	-3.30300000e-01	1.000	 35	 0	
 340	-4.26866000e+00	-9.04787000e+00	-3.59560000e-01	1.000	 35	 0	
 341	-3.26249000e+00	-8.96010000e+00	-3.52590000e-01	1.000	 35	 0	
 342	-2.25386000e+00	-9.02469000e+00	-3.00430000e-01	1.000	 35	 0	
 343	-1.24088000e+00	-9.14922000e+00	-3.36810000e-01	1.000	 35	 0	
 344	-3.36200000e-01	-9.09121000e+00	-3.43410000e-01	1.000	 35	 0	
 345	 1.10998000e+00	-8.11622000e+00	-3.31550000e-01	1.000	 35	 0	
 346	 2.14944000e+00	-7.96140000e+00	-3.41030000e-01	1.000	 35	 0	
 347	 3.21335000e+00	-8.04179000e+00	-3.50020000e-01	1.000	 35	 0	
 348	 4.22566000e+00	-8.12873000e+00	-3.38700000e-01	1.000	 35	 0	
 349	 5.24181000e+00	-8.01408000e+00	-3.36420000e-01	1.000	 35	 0	
 350	 6.25686000e+00	-7.95618000e+00	-3.37660000e-01	1.000	 35	 0	
 351	 7.32130000e+00	-8.01434000e+00	-3.12360000e-01	1.000	 35	 0	
 352	 8.28209000e+00	-7.97100000e+00	-2.91870000e-01	1.000	 35	 0	
 353	 9.31592000e+00	-8.11394000e+00	-3.29880000e-01	1.000	 35	 0	
 354	 1.02934400e+01	-8.13194000e+00	-3.11220000e-01	1.000	 35	 0	
 355	 1.12416700e+01	-8.06260000e+00	-3.45860000e-01	1.000	 35	 0	
 356	-1.15583800e+01	-8.03141000e+00	-3.39670000e-01	1.000	 35	 0	
 357	-1.05683900e+01	-8.09426000e+00	-3.19990000e-01	1.000	 35	 0	
 358	-9.56479000e+00	-7.98124000e+00	-2.68440000e-01	1.000	 35	 0	
 359	-8.60777000e+00	-8.10868000e+00	-3.16730000e-01	1.000	 35	 0	
 360	-7.69223000e+00	-8.00524000e+00	-3.35010000e-01	1.000	 35	 0	
 361	-6.79957000e+00	-7.93141000e+00	-3.43100000e-01	1.000	 35	 0	
 362	-5.88163000e+00	-8.09080000e+00	-3.16040000e-01	1.000	 35	 0	
 363	-4.83337000e+00	-7.97961000e+00	-3.33290000e-01	1.000	 35	 0	
 364	-2.78475000e+00	-8.06702000e+00	-3.46310000e-01	1.000	 35	 0	
 365	-1.87294000e+00	-8.12140000e+00	-3.16930000e-01	1.000	 35	 0	
 366	-8.57340000e-01	-8.12406000e+00	-3.27210000e-01	1.000	 35	 0	
 367	 1.11130000e-01	-8.20644000e+00	-3.07480000e-01	1.000	 35	 0	
 368	 4.48200000e-02	-7.01227000e+00	-3.31130000e-01	1.000	 35	 0	
 369	 1.17136000e+00	-6.95862000e+00	-3.47730000e-01	1.000	 35	 0	
 370	 2.34846000e+00	-6.88600000e+00	-3.87940000e-01	1.000	 35	 0	
 371	 3.35993000e+00	-6.98570000e+00	-3.45160000e-01	1.000	 35	 0	
 372	 4.27318000e+00	-7.08039000e+00	-3.46430000e-01	1.000	 35	 0	
 373	 5.30448000e+00	-6.97449000e+00	-3.23890000e-01	1.000	 35	 0	
 374	 6.36991000e+00	-6.96232000e+00	-3.11340000e-01	1.000	 35	 0	
 375	 8.66706000e+00	-7.03781000e+00	-3.47960000e-01	1.000	 35	 0	
 376	 9.63672000e+00	-7.09603000e+00	-3.25870000e-01	1.000	 35	 0	
 377	 1.06942800e+01	-7.06545000e+00	-3.21110000e-01	1.000	 35	 0	
 378	 1.16972800e+01	-7.01412000e+00	-3.33920000e-01	1.000	 35	 0	
 379	-1.11014400e+01	-7.04182000e+00	-3.20480000e-01	1.000	 35	 0	
 380	-1.01633800e+01	-6.94987000e+00	-3.41490000e-01	1.000	 35	 0	
 381	-9.15597000e+00	-7.01232000e+00	-3.63080000e-01	1.000	 35	 0	
 382	-8.11561000e+00	-7.05116000e+00	-3.34710000e-01	1.000	 35	 0	
 383	-6.92743000e+00	-6.90691000e+00	-3.30660000e-01	1.000	 35	 0	
 384	-5.80717000e+00	-6.97093000e+00	-3.14320000e-01	1.000	 35	 0	
 385	-4.83571000e+00	-6.97055000e+00	-3.30190000e-01	1.000	 35	 0	
 386	-3.78629000e+00	-8.04498000e+00	-3.51990000e-01	1.000	 35	 0	
 387	-3.84010000e+00	-6.95119000e+00	-3.19700000e-01	1.000	 35	 0	
 388	-2.87641000e+00	-7.07075000e+00	-3.32150000e-01	1.000	 35	 0	
 389	-1.87815000e+00	-7.06675000e+00	-3.62580000e-01	1.000	 35	 0	
 390	-9.15110000e-01	-7.01149000e+00	-3.23430000e-01	1.000	 35	 0	
 391	-3.37900000e-02	-5.99577000e+00	-3.31660000e-01	1.000	 35	 0	
 392	 9.45010000e-01	-6.05509000e+00	-3.39590000e-01	1.000	 35	 0	
 393	 1.92314000e+00	-5.95353000e+00	-3.45540000e-01	1.000	 35	 0	
 394	 3.05003000e+00	-6.02523000e+00	-3.63140000e-01	1.000	 35	 0	
 395	 4.18777000e+00	-6.07359000e+00	-3.54960000e-01	1.000	 35	 0	
 396	 5.32215000e+00	-6.00286000e+00	-3.04590000e-01	1.000	 35	 0	
 397	 6.37130000e+00	-5.98294000e+00	-3.66860000e-01	1.000	 35	 0	
 398	 7.44387000e+00	-6.97101000e+00	-3.37080000e-01	1.000	 35	 0	
 399	 7.58510000e+00	-5.90656000e+00	-3.42990000e-01	1.000	 35	 0	
 400	 8.95008000e+00	-6.01504000e+00	-3.52590000e-01	1.000	 35	 0	
 401	 1.01805600e+01	-6.05953000e+00	-3.51570000e-01	1.000	 35	 0	
 402	 1.11770100e+01	-5.92328000e+00	-3.35500000e-01	1.000	 35	 0	
 403	-1.15842900e+01	-5.98390000e+00	-3.45490000e-01	1.000	 35	 0	
 404	-1.05973100e+01	-5.93796000e+00	-3.20780000e-01	1.000	 35	 0	
 405	-9.61071000e+00	-6.00312000e+00	-3.38990000e-01	1.000	 35	 0	
 406	-8.56992000e+00	-5.91890000e+00	-3.30990000e-01	1.000	 35	 0	
 407	-7.47690000e+00	-5.88875000e+00	-3.65350000e-01	1.000	 35	 0	
 408	-6.37543000e+00	-5.88833000e+00	-3.33170000e-01	1.000	 35	 0	
 409	-5.40659000e+00	-5.74185000e+00	-3.11760000e-01	1.000	 35	 0	
 410	-4.29236000e+00	-5.92284000e+00	-3.60620000e-01	1.000	 35	 0	
 411	-3.16465000e+00	-6.08692000e+00	-3.60860000e-01	1.000	 35	 0	
 412	-2.08731000e+00	-6.08927000e+00	-3.67930000e-01	1.000	 35	 0	
 413	-1.13980000e+00	-5.99964000e+00	-3.18770000e-01	1.000	 35	 0	
 414	 4.83640000e-01	-4.99070000e+00	-3.39450000e-01	1.000	 35	 0	
 415	 1.46237000e+00	-4.96123000e+00	-3.59760000e-01	1.000	 35	 0	
 416	 2.42666000e+00	-4.93391000e+00	-3.35960000e-01	1.000	 35	 0	
 417	 3.37469000e+00	-4.93653000e+00	-3.27770000e-01	1.000	 35	 0	
 418	 4.32692000e+00	-5.00928000e+00	-3.22270000e-01	1.000	 35	 0	
 419	 5.25020000e+00	-4.91523000e+00	-3.49690000e-01	1.000	 35	 0	
 420	 6.23407000e+00	-4.92968000e+00	-3.16770000e-01	1.000	 35	 0	
 421	 7.16614000e+00	-4.84392000e+00	-3.67690000e-01	1.000	 35	 0	
 422	 8.37525000e+00	-5.05399000e+00	-3.44880000e-01	1.000	 35	 0	
 423	 9.63460000e+00	-5.01677000e+00	-3.23090000e-01	1.000	 35	 0	
 424	 1.07081800e+01	-5.01705000e+00	-3.17050000e-01	1.000	 35	 0	
 425	 1.17113400e+01	-4.94305000e+00	-3.38830000e-01	1.000	 35	 0	
 426	-1.10473400e+01	-4.83002000e+00	-3.53600000e-01	1.000	 35	 0	
 427	-1.00507000e+01	-4.83732000e+00	-3.46920000e-01	1.000	 35	 0	
 428	-9.02881000e+00	-4.90125000e+00	-3.27860000e-01	1.000	 35	 0	
 429	-8.01681000e+00	-4.89832000e+00	-3.51100000e-01	1.000	 35	 0	
 430	-6.89359000e+00	-4.92543000e+00	-3.51980000e-01	1.000	 35	 0	
 431	-5.85922000e+00	-4.83965000e+00	-3.57710000e-01	1.000	 35	 0	
 432	-4.87064000e+00	-4.82205000e+00	-3.41090000e-01	1.000	 35	 0	
 433	-3.75585000e+00	-4.87577000e+00	-3.28450000e-01	1.000	 35	 0	
 434	-2.69312000e+00	-5.04549000e+00	-3.45510000e-01	1.000	 35	 0	
 435	-1.58860000e+00	-5.02237000e+00	-3.56030000e-01	1.000	 35	 0	
 436	-5.51780000e-01	-4.94202000e+00	-3.33420000e-01	1.000	 35	 0	
 437	-3.00110000e-01	-3.78364000e+00	-3.06980000e-01	1.000	 35	 0	
 438	 6.77740000e-01	-3.88128000e+00	-3.26390000e-01	1.000	 35	 0	
 439	 1.60948000e+00	-3.99191000e+00	-3.27550000e-01	1.000	 35	 0	
 440	 2.54271000e+00	-3.99173000e+00	-3.46480000e-01	1.000	 35	 0	
 441	 3.44604000e+00	-3.93826000e+00	-3.29730000e-01	1.000	 35	 0	
 442	 4.41418000e+00	-3.82148000e+00	-2.58360000e-01	1.000	 35	 0	
 443	 5.47506000e+00	-3.98853000e+00	-2.94540000e-01	1.000	 35	 0	