ITEM: TIMESTEP
0
ITEM: BOX BOUNDS xx yy zz
-11.89302	 11.89302	
-11.89302	 11.89302	
-1.10000	 1.10000	
ITEM: NUMBER OF ATOMS
1058
ITEM: ATOMS index x y z diameter charge species
   0	-1.48830000e-01	 2.60620000e-01	-3.14840000e-01	1.000	 35	 0	
   1	 8.53120000e-01	 2.79650000e-01	-2.87910000e-01	1.000	 35	 0	
   2	 1.91749000e+00	 2.74260000e-01	-2.82740000e-01	1.000	 35	 0	
   3	 2.96571000e+00	 1.89680000e-01	-3.41520000e-01	1.000	 35	 0	
   4	 4.02340000e+00	 2.30990000e-01	-3.23380000e-01	1.000	 35	 0	
   5	 5.01000000e+00	 2.31760000e-01	-2.78170000e-01	1.000	 35	 0	
   6	 6.08152000e+00	 2.25480000e-01	-3.07900000e-01	1.000	 35	 0	
   7	 7.09168000e+00	 2.24100000e-01	-3.26110000e-01	1.000	 35	 0	
   8	 8.13546000e+00	 2.12330000e-01	-3.13630000e-01	1.000	 35	 0	
   9	 9.15657000e+00	 2.56650000e-01	-3.11640000e-01	1.000	 35	 0	
  10	 1.01754000e+01	 1.92170000e-01	-2.89510000e-01	1.000	 35	 0	
  11	 1.11358000e+01	 2.39850000e-01	-3.16150000e-01	1.000	 35	 0	
  12	-1.15954000e+01	 1.84710000e-01	-3.25850000e-01	1.000	 35	 0	
  13	-1.05591000e+01	 2.20190000e-01	-3.45870000e-01	1.000	 35	 0	
  14	-9.48770000e+00	 3.17460000e-01	-3.33540000e-01	1.000	 35	 0	
  15	-8.44930000e+00	 2.25560000e-01	-3.11140000e-01	1.000	 35	 0	
  16	-7.42867000e+00	 2.53490000e-01	-3.30210000e-01	1.000	 35	 0	
  17	-6.37246000e+00	 2.54490000e-01	-2.84100000e-01	1.000	 35	 0	
  18	-5.40832000e+00	 2.37900000e-01	-2.87240000e-01	1.000	 35	 0	
  19	-4.38940000e+00	 1.52930000e-01	-3.23500000e-01	1.000	 35	 0	
  20	-3.30618000e+00	 2.31450000e-01	-3.23890000e-01	1.000	 35	 0	
  21	-2.26781000e+00	 1.48490000e-01	-3.21890000e-01	1.000	 35	 0	
  22	-1.19456000e+00	 2.28780000e-01	-2.74220000e-01	1.000	 35	 0	
  23	-1.66910000e-01	 1.30699000e+00	-3.04140000e-01	1.000	 35	 0	
  24	 9.16050000e-01	 1.27246000e+00	-3.35620000e-01	1.000	 35	 0	
  25	 1.97753000e+00	 1.29391000e+00	-3.17620000e-01	1.000	 35	 0	
  26	 2.98320000e+00	 1.26091000e+00	-3.17150000e-01	1.000	 35	 0	
  27	 4.05201000e+00	 1.30218000e+00	-3.00660000e-01	1.000	 35	 0	
  28	 5.06001000e+00	 1.31033000e+00	-3.04340000e-01	1.000	 35	 0	
  29	 6.08609000e+00	 1.29532000e+00	-3.35350000e-01	1.000	 35	 0	
  30	 7.11702000e+00	 1.30202000e+00	-2.99480000e-01	1.000	 35	 0	
  31	 8.12989000e+00	 1.27419000e+00	-3.21950000e-01	1.000	 35	 0	
  32	 9.10847000e+00	 1.28385000e+00	-3.04380000e-01	1.000	 35	 0	
  33	 1.01408000e+01	 1.23198000e+00	-3.26140000e-01	1.000	 35	 0	
  34	 1.11892000e+01	 1.26708000e+00	-2.87000000e-01	1.000	 35	 0	
  35	-1.15773000e+01	 1.19593000e+00	-3.36290000e-01	1.000	 35	 0	
  36	-1.05164000e+01	 1.27883000e+00	-3.49470000e-01	1.000	 35	 0	
  37	-9.49055000e+00	 1.34858000e+00	-3.09260000e-01	1.000	 35	 0	
  38	-8.44657000e+00	 1.27874000e+00	-3.13010000e-01	1.000	 35	 0	
  39	-7.41742000e+00	 1.30756000e+00	-3.05050000e-01	1.000	 35	 0	
  40	-6.36069000e+00	 1.24665000e+00	-2.94550000e-01	1.000	 35	 0	
  41	-5.33501000e+00	 1.24229000e+00	-3.22610000e-01	1.000	 35	 0	
  42	-4.32731000e+00	 1.23238000e+00	-3.32320000e-01	1.000	 35	 0	
  43	-3.29108000e+00	 1.30410000e+00	-3.02920000e-01	1.000	 35	 0	
  44	-2.32858000e+00	 1.22722000e+00	-3.24700000e-01	1.000	 35	 0	
  45	-1.19084000e+00	 1.31368000e+00	-3.13160000e-01	1.000	 35	 0	
  46	-1.72370000e-01	 2.37827000e+00	-3.00410000e-01	1.000	 35	 0	
  47	 8.91690000e-01	 2.40327000e+00	-3.34030000e-01	1.000	 35	 0	
  48	 1.92019000e+00	 2.27572000e+00	-3.29330000e-01	1.000	 35	 0	
  49	 3.01556000e+00	 2.28195000e+00	-3.29350000e-01	1.000	 35	 0	
  50	 4.03065000e+00	 2.29944000e+00	-3.24470000e-01	1.000	 35	 0	
  51	 5.05494000e+00	 2.35334000e+00	-3.10710000e-01	1.000	 35	 0	
  52	 6.06238000e+00	 2.35054000e+00	-3.32720000e-01	1.000	 35	 0	
  53	 7.11571000e+00	 2.34870000e+00	-3.18830000e-01	1.000	 35	 0	
  54	 8.11807000e+00	 2.31082000e+00	-3.45270000e-01	1.000	 35	 0	
  55	 9.11947000e+00	 2.29252000e+00	-3.19720000e-01	1.000	 35	 0	
  56	 1.01792000e+01	 2.30359000e+00	-3.04580000e-01	1.000	 35	 0	
  57	 1.12050000e+01	 2.30922000e+00	-3.14340000e-01	1.000	 35	 0	
  58	-1.16191000e+01	 2.25770000e+00	-3.36750000e-01	1.000	 35	 0	
  59	-1.05341000e+01	 2.25245000e+00	-3.49290000e-01	1.000	 35	 0	
  60	-9.47164000e+00	 2.30495000e+00	-3.01530000e-01	1.000	 35	 0	
  61	-8.49083000e+00	 2.33152000e+00	-3.16090000e-01	1.000	 35	 0	
  62	-7.41341000e+00	 2.33322000e+00	-3.30230000e-01	1.000	 35	 0	
  63	-6.42620000e+00	 2.28558000e+00	-3.18750000e-01	1.000	 35	 0	
  64	-5.31232000e+00	 2.32946000e+00	-3.44590000e-01	1.000	 35	 0	
  65	-4.35798000e+00	 2.27217000e+00	-3.27480000e-01	1.000	 35	 0	
  66	-3.31659000e+00	 2.30492000e+00	-3.29830000e-01	1.000	 35	 0	
  67	-2.23131000e+00	 2.27114000e+00	-3.31440000e-01	1.000	 35	 0	
  68	-1.19117000e+00	 2.28770000e+00	-3.00190000e-01	1.000	 35	 0	
  69	-1.84930000e-01	 3.38123000e+00	-3.28660000e-01	1.000	 35	 0	
  70	 8.69890000e-01	 3.39297000e+00	-3.17530000e-01	1.000	 35	 0	
  71	 1.93166000e+00	 3.35559000e+00	-3.40250000e-01	1.000	 35	 0	
  72	 2.94316000e+00	 3.30957000e+00	-3.30220000e-01	1.000	 35	 0	
  73	 3.97417000e+00	 3.35386000e+00	-2.82560000e-01	1.000	 35	 0	
  74	 5.01750000e+00	 3.36010000e+00	-3.10550000e-01	1.000	 35	 0	
  75	 6.04653000e+00	 3.34266000e+00	-3.19510000e-01	1.000	 35	 0	
  76	 7.07219000e+00	 3.34217000e+00	-3.21160000e-01	1.000	 35	 0	
  77	 8.05914000e+00	 3.33315000e+00	-3.49370000e-01	1.000	 35	 0	
  78	 9.10439000e+00	 3.36404000e+00	-3.31500000e-01	1.000	 35	 0	
  79	 1.01654000e+01	 3.34384000e+00	-3.10360000e-01	1.000	 35	 0	
  80	 1.11489000e+01	 3.32012000e+00	-3.22170000e-01	1.000	 35	 0	
  81	-1.15861000e+01	 3.30986000e+00	-3.50150000e-01	1.000	 35	 0	
  82	-1.05755000e+01	 3.27399000e+00	-3.12380000e-01	1.000	 35	 0	
  83	-9.52163000e+00	 3.36360000e+00	-2.88790000e-01	1.000	 35	 0	
  84	-8.50429000e+00	 3.39015000e+00	-3.05790000e-01	1.000	 35	 0	
  85	-7.45434000e+00	 3.36897000e+00	-3.36980000e-01	1.000	 35	 0	
  86	-6.41772000e+00	 3.34016000e+00	-3.05280000e-01	1.000	 35	 0	
  87	-5.41386000e+00	 3.33865000e+00	-3.13170000e-01	1.000	 35	 0	
  88	-4.28964000e+00	 3.34299000e+00	-3.06500000e-01	1.000	 35	 0	
  89	-3.27864000e+00	 3.35161000e+00	-3.10950000e-01	1.000	 35	 0	
  90	-2.19590000e+00	 3.35869000e+00	-3.14610000e-01	1.000	 35	 0	
  91	-1.23039000e+00	 3.40607000e+00	-3.07130000e-01	1.000	 35	 0	
  92	-1.32250000e-01	 4.40551000e+00	-3.14270000e-01	1.000	 35	 0	
  93	 8.78380000e-01	 4.40693000e+00	-3.32720000e-01	1.000	 35	 0	
  94	 1.90342000e+00	 4.36524000e+00	-3.09030000e-01	1.000	 35	 0	
  95	 2.92277000e+00	 4.36166000e+00	-3.16250000e-01	1.000	 35	 0	
  96	 3.94693000e+00	 4.39426000e+00	-3.52350000e-01	1.000	 35	 0	
  97	 4.99536000e+00	 4.36062000e+00	-3.02610000e-01	1.000	 35	 0	
  98	 6.03950000e+00	 4.44148000e+00	-3.10730000e-01	1.000	 35	 0	
  99	 7.03282000e+00	 4.42021000e+00	-3.24140000e-01	1.000	 35	 0	
 100	 8.04532000e+00	 4.36638000e+00	-3.28990000e-01	1.000	 35	 0	
 101	 9.14256000e+00	 4.34884000e+00	-2.94940000e-01	1.000	 35	 0	
 102	 1.01702000e+01	 4.35084000e+00	-3.15050000e-01	1.000	 35	 0	
 103	 1.11965000e+01	 4.41218000e+00	-3.08330000e-01	1.000	 35	 0	
 104	-1.15441000e+01	 4.39766000e+00	-3.35680000e-01	1.000	 35	 0	
 105	-1.05117000e+01	 4.39344000e+00	-3.40290000e-01	1.000	 35	 0	
 106	-9.50188000e+00	 4.39214000e+00	-3.38660000e-01	1.000	 35	 0	
 107	-8.42562000e+00	 4.39505000e+00	-3.28590000e-01	1.000	 35	 0	
 108	-7.37646000e+00	 4.38823000e+00	-3.33950000e-01	1.000	 35	 0	
 109	-6.33949000e+00	 4.38381000e+00	-3.17280000e-01	1.000	 35	 0	
 110	-5.33914000e+00	 4.35544000e+00	-3.01410000e-01	1.000	 35	 0	
 111	-4.31648000e+00	 4.34183000e+00	-3.29510000e-01	1.000	 35	 0	
 112	-3.28378000e+00	 4.37501000e+00	-2.94850000e-01	1.000	 35	 0	
 113	-2.28096000e+00	 4.39379000e+00	-3.17160000e-01	1.000	 35	 0	
 114	-1.23408000e+00	 4.38142000e+00	-3.05780000e-01	1.000	 35	 0	
 115	-1.99620000e-01	 5.40052000e+00	-3.08680000e-01	1.000	 35	 0	
 116	 8.40460000e-01	 5.41453000e+00	-3.26390000e-01	1.000	 35	 0	
 117	 1.93998000e+00	 5.38752000e+00	-3.37530000e-01	1.000	 35	 0	
 118	 2.95131000e+00	 5.43280000e+00	-3.08760000e-01	1.000	 35	 0	
 119	 3.98432000e+00	 5.39113000e+00	-3.31750000e-01	1.000	 35	 0	
 120	 5.00873000e+00	 5.42279000e+00	-3.39460000e-01	1.000	 35	 0	
 121	 6.03726000e+00	 5.46459000e+00	-2.78450000e-01	1.000	 35	 0	
 122	 7.08809000e+00	 5.43221000e+00	-3.22540000e-01	1.000	 35	 0	
 123	 8.12759000e+00	 5.37202000e+00	-3.28050000e-01	1.000	 35	 0	
 124	 9.14197000e+00	 5.35653000e+00	-3.04980000e-01	1.000	 35	 0	
 125	 1.01663000e+01	 5.39509000e+00	-3.34480000e-01	1.000	 35	 0	
 126	 1.12212000e+01	 5.41811000e+00	-3.23650000e-01	1.000	 35	 0	
 127	-1.15006000e+01	 5.39910000e+00	-3.21720000e-01	1.000	 35	 0	
 128	-1.04767000e+01	 5.45143000e+00	-2.93760000e-01	1.000	 35	 0	
 129	-9.43041000e+00	 5.40149000e+00	-3.22700000e-01	1.000	 35	 0	
 130	-8.36753000e+00	 5.40843000e+00	-3.22760000e-01	1.000	 35	 0	
 131	-7.38740000e+00	 5.47004000e+00	-3.25160000e-01	1.000	 35	 0	
 132	-6.41028000e+00	 5.43703000e+00	-3.13890000e-01	1.000	 35	 0	
 133	-5.30681000e+00	 5.36007000e+00	-3.08930000e-01	1.000	 35	 0	
 134	-4.34885000e+00	 5.36746000e+00	-3.05380000e-01	1.000	 35	 0	
 135	-3.33370000e+00	 5.36872000e+00	-3.32950000e-01	1.000	 35	 0	
 136	-2.28398000e+00	 5.44911000e+00	-3.41850000e-01	1.000	 35	 0	
 137	-1.22954000e+00	 5.49586000e+00	-3.00120000e-01	1.000	 35	 0	
 138	-1.14090000e-01	 6.38693000e+00	-3.16960000e-01	1.000	 35	 0	
 139	 8.60640000e-01	 6.44480000e+00	-3.25820000e-01	1.000	 35	 0	
 140	 1.94221000e+00	 6.43979000e+00	-3.34750000e-01	1.000	 35	 0	
 141	 2.94172000e+00	 6.44653000e+00	-3.01490000e-01	1.000	 35	 0	
 142	 3.96859000e+00	 6.42333000e+00	-3.22200000e-01	1.000	 35	 0	
 143	 5.03842000e+00	 6.47808000e+00	-2.99960000e-01	1.000	 35	 0	
 144	 6.05550000e+00	 6.46076000e+00	-3.29920000e-01	1.000	 35	 0	
 145	 7.12961000e+00	 6.44930000e+00	-3.21930000e-01	1.000	 35	 0	
 146	 8.17225000e+00	 6.43604000e+00	-2.82810000e-01	1.000	 35	 0	
 147	 9.16662000e+00	 6.43356000e+00	-3.06900000e-01	1.000	 35	 0	
 148	 1.02033000e+01	 6.41867000e+00	-3.32190000e-01	1.000	 35	 0	
 149	 1.12259000e+01	 6.40760000e+00	-3.22920000e-01	1.000	 35	 0	
 150	-1.14554000e+01	 6.47106000e+00	-3.50100000e-01	1.000	 35	 0	
 151	-1.04482000e+01	 6.45253000e+00	-2.97680000e-01	1.000	 35	 0	
 152	-9.46784000e+00	 6.47191000e+00	-3.13000000e-01	1.000	 35	 0	
 153	-8.40296000e+00	 6.44755000e+00	-3.53700000e-01	1.000	 35	 0	
 154	-7.42592000e+00	 6.52772000e+00	-3.28220000e-01	1.000	 35	 0	
 155	-6.40956000e+00	 6.43250000e+00	-3.10360000e-01	1.000	 35	 0	
 156	-5.41708000e+00	 6.44668000e+00	-3.26030000e-01	1.000	 35	 0	
 157	-4.36633000e+00	 6.40425000e+00	-3.37790000e-01	1.000	 35	 0	
 158	-3.33793000e+00	 6.36555000e+00	-3.24850000e-01	1.000	 35	 0	
 159	-2.26160000e+00	 6.44773000e+00	-3.24800000e-01	1.000	 35	 0	
 160	-1.24361000e+00	 6.42486000e+00	-2.93640000e-01	1.000	 35	 0	
 161	-1.39310000e-01	 7.41560000e+00	-3.36050000e-01	1.000	 35	 0	
 162	 8.62010000e-01	 7.43257000e+00	-3.03310000e-01	1.000	 35	 0	
 163	 1.93463000e+00	 7.44568000e+00	-3.18660000e-01	1.000	 35	 0	
 164	 2.91064000e+00	 7.47387000e+00	-3.31080000e-01	1.000	 35	 0	
 165	 3.98424000e+00	 7.44899000e+00	-2.95770000e-01	1.000	 35	 0	
 166	 5.06618000e+00	 7.46736000e+00	-3.48350000e-01	1.000	 35	 0	
 167	 6.06244000e+00	 7.48769000e+00	-3.29990000e-01	1.000	 35	 0	
 168	 7.08947000e+00	 7.44510000e+00	-3.30950000e-01	1.000	 35	 0	
 169	 8.18078000e+00	 7.45939000e+00	-3.18450000e-01	1.000	 35	 0	
 170	 9.17810000e+00	 7.47989000e+00	-3.21510000e-01	1.000	 35	 0	
 171	 1.02566000e+01	 7.46249000e+00	-2.87470000e-01	1.000	 35	 0	
 172	 1.12643000e+01	 7.45982000e+00	-2.91840000e-01	1.000	 35	 0	
 173	-1.15163000e+01	 7.52949000e+00	-3.12040000e-01	1.000	 35	 0	
 174	-1.05070000e+01	 7.53789000e+00	-3.01290000e-01	1.000	 35	 0	
 175	-9.46299000e+00	 7.57404000e+00	-3.08430000e-01	1.000	 35	 0	
 176	-8.49057000e+00	 7.49441000e+00	-3.23470000e-01	1.000	 35	 0	
 177	-7.45640000e+00	 7.57235000e+00	-3.43220000e-01	1.000	 35	 0	
 178	-6.46382000e+00	 7.54174000e+00	-3.29730000e-01	1.000	 35	 0	
 179	-5.41368000e+00	 7.53322000e+00	-3.27610000e-01	1.000	 35	 0	
 180	-4.39164000e+00	 7.44694000e+00	-2.96850000e-01	1.000	 35	 0	
 181	-3.33646000e+00	 7.44312000e+00	-3.01680000e-01	1.000	 35	 0	
 182	-2.26558000e+00	 7.41069000e+00	-3.14510000e-01	1.000	 35	 0	
 183	-1.22166000e+00	 7.46083000e+00	-3.22130000e-01	1.000	 35	 0	
 184	-1.34640000e-01	 8.44580000e+00	-2.98680000e-01	1.000	 35	 0	
 185	 8.91270000e-01	 8.47465000e+00	-2.97880000e-01	1.000	 35	 0	
 186	 1.90722000e+00	 8.46125000e+00	-3.20700000e-01	1.000	 35	 0	
 187	 2.94576000e+00	 8.47948000e+00	-3.18980000e-01	1.000	 35	 0	
 188	 3.98398000e+00	 8.46935000e+00	-3.18710000e-01	1.000	 35	 0	
 189	 5.03609000e+00	 8.47881000e+00	-3.02950000e-01	1.000	 35	 0	
 190	 6.03482000e+00	 8.50345000e+00	-3.22370000e-01	1.000	 35	 0	
 191	 7.09834000e+00	 8.48780000e+00	-3.46270000e-01	1.000	 35	 0	
 192	 8.15137000e+00	 8.46956000e+00	-3.18820000e-01	1.000	 35	 0	
 193	 9.21277000e+00	 8.50216000e+00	-3.06290000e-01	1.000	 35	 0	
 194	 1.02075000e+01	 8.52508000e+00	-2.91560000e-01	1.000	 35	 0	
 195	 1.12019000e+01	 8.50017000e+00	-3.38360000e-01	1.000	 35	 0	
 196	-1.15667000e+01	 8.56158000e+00	-3.25500000e-01	1.000	 35	 0	
 197	-1.05556000e+01	 8.51573000e+00	-3.13560000e-01	1.000	 35	 0	
 198	-9.47441000e+00	 8.57409000e+00	-3.08190000e-01	1.000	 35	 0	
 199	-8.43968000e+00	 8.53020000e+00	-3.20880000e-01	1.000	 35	 0	
 200	-7.43343000e+00	 8.57459000e+00	-3.30310000e-01	1.000	 35	 0	
 201	-6.40257000e+00	 8.52605000e+00	-3.34040000e-01	1.000	 35	 0	
 202	-5.38838000e+00	 8.54280000e+00	-3.33700000e-01	1.000	 35	 0	
 203	-4.31575000e+00	 8.43921000e+00	-2.89750000e-01	1.000	 35	 0	
 204	-3.26499000e+00	 8.41617000e+00	-3.30440000e-01	1.000	 35	 0	
 205	-2.26598000e+00	 8.45991000e+00	-2.86620000e-01	1.000	 35	 0	
 206	-1.21104000e+00	 8.41386000e+00	-2.84110000e-01	1.000	 35	 0	
 207	-1.55110000e-01	 9.49868000e+00	-2.87780000e-01	1.000	 35	 0	
 208	 8.57420000e-01	 9.51965000e+00	-3.17520000e-01	1.000	 35	 0	
 209	 1.93672000e+00	 9.52042000e+00	-3.37530000e-01	1.000	 35	 0	
 210	 2.98192000e+00	 9.52666000e+00	-3.03130000e-01	1.000	 35	 0	
 211	 4.00967000e+00	 9.53893000e+00	-3.22380000e-01	1.000	 35	 0	
 212	 5.05682000e+00	 9.49729000e+00	-3.11550000e-01	1.000	 35	 0	
 213	 6.01833000e+00	 9.52320000e+00	-3.11370000e-01	1.000	 35	 0	
 214	 7.06203000e+00	 9.56910000e+00	-3.08490000e-01	1.000	 35	 0	
 215	 8.10860000e+00	 9.49911000e+00	-3.01980000e-01	1.000	 35	 0	
 216	 9.13911000e+00	 9.51478000e+00	-3.23450000e-01	1.000	 35	 0	
 217	 1.02096000e+01	 9.55136000e+00	-3.36830000e-01	1.000	 35	 0	
 218	 1.12502000e+01	 9.53855000e+00	-2.99200000e-01	1.000	 35	 0	
 219	-1.15465000e+01	 9.57177000e+00	-3.18490000e-01	1.000	 35	 0	
 220	-1.05354000e+01	 9.57421000e+00	-3.03790000e-01	1.000	 35	 0	
 221	-9.48719000e+00	 9.59764000e+00	-3.53650000e-01	1.000	 35	 0	
 222	-8.41492000e+00	 9.54868000e+00	-3.21240000e-01	1.000	 35	 0	
 223	-7.38592000e+00	 9.54798000e+00	-3.29610000e-01	1.000	 35	 0	
 224	-6.36790000e+00	 9.61431000e+00	-3.15910000e-01	1.000	 35	 0	
 225	-5.32308000e+00	 9.55726000e+00	-3.05770000e-01	1.000	 35	 0	
 226	-4.28218000e+00	 9.48581000e+00	-3.20250000e-01	1.000	 35	 0	
 227	-3.22841000e+00	 9.50461000e+00	-3.31000000e-01	1.000	 35	 0	
 228	-2.21006000e+00	 9.47905000e+00	-3.13960000e-01	1.000	 35	 0	
 229	-1.17983000e+00	 9.52742000e+00	-3.21550000e-01	1.000	 35	 0	
 230	-1.31390000e-01	 1.05662000e+01	-3.18970000e-01	1.000	 35	 0	
 231	 8.65470000e-01	 1.05376000e+01	-2.92540000e-01	1.000	 35	 0	
 232	 1.89723000e+00	 1.05366000e+01	-3.19190000e-01	1.000	 35	 0	
 233	 2.96533000e+00	 1.05176000e+01	-3.31200000e-01	1.000	 35	 0	
 234	 3.98658000e+00	 1.05970000e+01	-3.32090000e-01	1.000	 35	 0	
 235	 4.97976000e+00	 1.05931000e+01	-3.15240000e-01	1.000	 35	 0	
 236	 6.01223000e+00	 1.05565000e+01	-3.18490000e-01	1.000	 35	 0	
 237	 7.05562000e+00	 1.05526000e+01	-3.37870000e-01	1.000	 35	 0	
 238	 8.19113000e+00	 1.04884000e+01	-3.16220000e-01	1.000	 35	 0	
 239	 9.22495000e+00	 1.05514000e+01	-3.23250000e-01	1.000	 35	 0	
 240	 1.02408000e+01	 1.05479000e+01	-3.11060000e-01	1.000	 35	 0	
 241	 1.12305000e+01	 1.05892000e+01	-3.08440000e-01	1.000	 35	 0	
 242	-1.15082000e+01	 1.06367000e+01	-3.31480000e-01	1.000	 35	 0	
 243	-1.04717000e+01	 1.05883000e+01	-3.12170000e-01	1.000	 35	 0	
 244	-9.36227000e+00	 1.05835000e+01	-3.13240000e-01	1.000	 35	 0	
 245	-8.39412000e+00	 1.05299000e+01	-3.07190000e-01	1.000	 35	 0	
 246	-7.41891000e+00	 1.05787000e+01	-2.95950000e-01	1.000	 35	 0	
 247	-6.37173000e+00	 1.05821000e+01	-3.40780000e-01	1.000	 35	 0	
 248	-5.31203000e+00	 1.05606000e+01	-3.09240000e-01	1.000	 35	 0	
 249	-4.27545000e+00	 1.05136000e+01	-2.90560000e-01	1.000	 35	 0	
 250	-3.33593000e+00	 1.05087000e+01	-3.08930000e-01	1.000	 35	 0	
 251	-2.26622000e+00	 1.05197000e+01	-3.16310000e-01	1.000	 35	 0	
 252	-1.24756000e+00	 1.05975000e+01	-3.06040000e-01	1.000	 35	 0	
 253	-1.74020000e-01	 1.15561000e+01	-3.15460000e-01	1.000	 35	 0	
 254	 8.73690000e-01	 1.15499000e+01	-3.25360000e-01	1.000	 35	 0	
 255	 1.93690000e+00	 1.15689000e+01	-3.32370000e-01	1.000	 35	 0	
 256	 2.91914000e+00	 1.16108000e+01	-3.16980000e-01	1.000	 35	 0	
 257	 3.98355000e+00	 1.15772000e+01	-3.44060000e-01	1.000	 35	 0	
 258	 5.04523000e+00	 1.16221000e+01	-3.24630000e-01	1.000	 35	 0	
 259	 6.05597000e+00	 1.15359000e+01	-2.99410000e-01	1.000	 35	 0	
 260	 7.10788000e+00	 1.15327000e+01	-2.78360000e-01	1.000	 35	 0	
 261	 8.16124000e+00	 1.15088000e+01	-3.30760000e-01	1.000	 35	 0	
 262	 9.19855000e+00	 1.15843000e+01	-3.11350000e-01	1.000	 35	 0	
 263	 1.02073000e+01	 1.15929000e+01	-3.16600000e-01	1.000	 35	 0	
 264	 1.12123000e+01	 1.16205000e+01	-2.85300000e-01	1.000	 35	 0	
 265	-1.15319000e+01	 1.16152000e+01	-3.23840000e-01	1.000	 35	 0	
 266	-1.04299000e+01	 1.16076000e+01	-3.18920000e-01	1.000	 35	 0	
 267	-9.40348000e+00	 1.16240000e+01	-3.31940000e-01	1.000	 35	 0	
 268	-8.36264000e+00	 1.15931000e+01	-3.26870000e-01	1.000	 35	 0	
 269	-7.38009000e+00	 1.15936000e+01	-3.22750000e-01	1.000	 35	 0	
 270	-6.35984000e+00	 1.16105000e+01	-3.40790000e-01	1.000	 35	 0	
 271	-5.33785000e+00	 1.15733000e+01	-3.22960000e-01	1.000	 35	 0	
 272	-4.27919000e+00	 1.16121000e+01	-2.99090000e-01	1.000	 35	 0	
 273	-3.30570000e+00	 1.15544000e+01	-2.86970000e-01	1.000	 35	 0	
 274	-2.28691000e+00	 1.15879000e+01	-3.25040000e-01	1.000	 35	 0	
 275	-1.16078000e+00	 1.15644000e+01	-2.98260000e-01	1.000	 35	 0	
 276	-2.23360000e-01	-1.11847000e+01	-3.34310000e-01	1.000	 35	 0	
 277	 8.02750000e-01	-1.12413000e+01	-3.16730000e-01	1.000	 35	 0	
 278	 1.86734000e+00	-1.11871000e+01	-3.36690000e-01	1.000	 35	 0	
 279	 2.88440000e+00	-1.11772000e+01	-3.38100000e-01	1.000	 35	 0	
 280	 3.95500000e+00	-1.11402000e+01	-3.20760000e-01	1.000	 35	 0	
 281	 5.02991000e+00	-1.11621000e+01	-2.98550000e-01	1.000	 35	 0	
 282	 6.07043000e+00	-1.11730000e+01	-3.19460000e-01	1.000	 35	 0	
 283	 7.08424000e+00	-1.12126000e+01	-3.44070000e-01	1.000	 35	 0	
 284	 8.13998000e+00	-1.11559000e+01	-3.05910000e-01	1.000	 35	 0	
 285	 9.15387000e+00	-1.12159000e+01	-3.21770000e-01	1.000	 35	 0	
 286	 1.01753000e+01	-1.11104000e+01	-3.05700000e-01	1.000	 35	 0	
 287	 1.12820000e+01	-1.11153000e+01	-3.20250000e-01	1.000	 35	 0	
 288	-1.14863000e+01	-1.11726000e+01	-3.23210000e-01	1.000	 35	 0	
 289	-1.04744000e+01	-1.11850000e+01	-3.21280000e-01	1.000	 35	 0	
 290	-9.43684000e+00	-1.11601000e+01	-3.21740000e-01	1.000	 35	 0	
 291	-8.41442000e+00	-1.11426000e+01	-3.21190000e-01	1.000	 35	 0	
 292	-7.35692000e+00	-1.10558000e+01	-3.39170000e-01	1.000	 35	 0	
 293	-6.37108000e+00	-1.11277000e+01	-3.29810000e-01	1.000	 35	 0	
 294	-5.34010000e+00	-1.11445000e+01	-3.11930000e-01	1.000	 35	 0	
 295	-4.25169000e+00	-1.11364000e+01	-2.90490000e-01	1.000	 35	 0	
 296	-3.25154000e+00	-1.11510000e+01	-3.18050000e-01	1.000	 35	 0	
 297	-2.20725000e+00	-1.11246000e+01	-2.92170000e-01	1.000	 35	 0	
 298	-1.21664000e+00	-1.11818000e+01	-3.43650000e-01	1.000	 35	 0	
 299	-1.43750000e-01	-1.01548000e+01	-3.31080000e-01	1.000	 35	 0	
 300	 9.06420000e-01	-1.01634000e+01	-3.15980000e-01	1.000	 35	 0	
 301	 1.95721000e+00	-1.01534000e+01	-3.09600000e-01	1.000	 35	 0	
 302	 2.94373000e+00	-1.01099000e+01	-3.14420000e-01	1.000	 35	 0	
 303	 3.98503000e+00	-1.01400000e+01	-3.10900000e-01	1.000	 35	 0	
 304	 5.01314000e+00	-1.01926000e+01	-3.28630000e-01	1.000	 35	 0	
 305	 6.04602000e+00	-1.01761000e+01	-3.08970000e-01	1.000	 35	 0	
 306	 7.11745000e+00	-1.01430000e+01	-3.14640000e-01	1.000	 35	 0	
 307	 8.15061000e+00	-1.01948000e+01	-2.97910000e-01	1.000	 35	 0	
 308	 9.24559000e+00	-1.01463000e+01	-3.18430000e-01	1.000	 35	 0	
 309	 1.02568000e+01	-1.00901000e+01	-3.02730000e-01	1.000	 35	 0	
 310	 1.12576000e+01	-1.01452000e+01	-3.15650000e-01	1.000	 35	 0	
 311	-1.14612000e+01	-1.01309000e+01	-2.93260000e-01	1.000	 35	 0	
 312	-1.04519000e+01	-1.01395000e+01	-2.82270000e-01	1.000	 35	 0	
 313	-9.44024000e+00	-1.01732000e+01	-3.11380000e-01	1.000	 35	 0	
 314	-8.43290000e+00	-1.00728000e+01	-3.24270000e-01	1.000	 35	 0	
 315	-7.38636000e+00	-1.00711000e+01	-3.13030000e-01	1.000	 35	 0	
 316	-6.33104000e+00	-1.00631000e+01	-3.05480000e-01	1.000	 35	 0	
 317	-5.25271000e+00	-1.00344000e+01	-3.44710000e-01	1.000	 35	 0	
 318	-4.18577000e+00	-1.01221000e+01	-3.20940000e-01	1.000	 35	 0	
 319	-3.19649000e+00	-1.01064000e+01	-3.07130000e-01	1.000	 35	 0	
 320	-2.21571000e+00	-1.00902000e+01	-3.06240000e-01	1.000	 35	 0	
 321	-1.24451000e+00	-1.01135000e+01	-3.22690000e-01	1.000	 35	 0	
 322	-1.62080000e-01	-9.09272000e+00	-3.16720000e-01	1.000	 35	 0	
 323	 9.32910000e-01	-9.09162000e+00	-3.16860000e-01	1.000	 35	 0	
 324	 1.89954000e+00	-9.08551000e+00	-2.94300000e-01	1.000	 35	 0	
 325	 2.94154000e+00	-9.08095000e+00	-2.90490000e-01	1.000	 35	 0	
 326	 3.97492000e+00	-9.07185000e+00	-3.28890000e-01	1.000	 35	 0	
 327	 5.00008000e+00	-9.08035000e+00	-3.45010000e-01	1.000	 35	 0	
 328	 6.04679000e+00	-9.12233000e+00	-3.29650000e-01	1.000	 35	 0	
 329	 7.17056000e+00	-9.10154000e+00	-2.85450000e-01	1.000	 35	 0	
 330	 8.16722000e+00	-9.09551000e+00	-3.01540000e-01	1.000	 35	 0	
 331	 9.21804000e+00	-9.07356000e+00	-3.36360000e-01	1.000	 35	 0	
 332	 1.02796000e+01	-9.04314000e+00	-3.14380000e-01	1.000	 35	 0	
 333	 1.13069000e+01	-9.07327000e+00	-2.84260000e-01	1.000	 35	 0	
 334	-1.15086000e+01	-9.06620000e+00	-3.49300000e-01	1.000	 35	 0	
 335	-1.04555000e+01	-9.13307000e+00	-3.05760000e-01	1.000	 35	 0	
 336	-9.43691000e+00	-9.11992000e+00	-3.47290000e-01	1.000	 35	 0	
 337	-8.41636000e+00	-9.09942000e+00	-3.11990000e-01	1.000	 35	 0	
 338	-7.38357000e+00	-9.06947000e+00	-2.95250000e-01	1.000	 35	 0	
 339	-6.32433000e+00	-9.04559000e+00	-3.17960000e-01	1.000	 35	 0	
 340	-5.26469000e+00	-9.03166000e+00	-2.86660000e-01	1.000	 35	 0	
 341	-4.27090000e+00	-9.05808000e+00	-3.10130000e-01	1.000	 35	 0	
 342	-3.23003000e+00	-9.04070000e+00	-3.46400000e-01	1.000	 35	 0	
 343	-2.22720000e+00	-9.05112000e+00	-3.50340000e-01	1.000	 35	 0	
 344	-1.18116000e+00	-9.09345000e+00	-3.17870000e-01	1.000	 35	 0	
 345	-1.49020000e-01	-8.06212000e+00	-3.02120000e-01	1.000	 35	 0	
 346	 8.83510000e-01	-8.06842000e+00	-2.92710000e-01	1.000	 35	 0	
 347	 1.91213000e+00	-8.02279000e+00	-3.17220000e-01	1.000	 35	 0	
 348	 2.92346000e+00	-8.08023000e+00	-3.28910000e-01	1.000	 35	 0	
 349	 3.97957000e+00	-8.05396000e+00	-3.10090000e-01	1.000	 35	 0	
 350	 5.04907000e+00	-8.04278000e+00	-3.36500000e-01	1.000	 35	 0	
 351	 6.08510000e+00	-8.08536000e+00	-3.02000000e-01	1.000	 35	 0	
 352	 7.10245000e+00	-8.05916000e+00	-3.40710000e-01	1.000	 35	 0	
 353	 8.14916000e+00	-8.10135000e+00	-3.00680000e-01	1.000	 35	 0	
 354	 9.24563000e+00	-8.07975000e+00	-3.48080000e-01	1.000	 35	 0	
 355	 1.02985000e+01	-8.04074000e+00	-3.10660000e-01	1.000	 35	 0	
 356	 1.13125000e+01	-8.02142000e+00	-3.12400000e-01	1.000	 35	 0	
 357	-1.14942000e+01	-8.03350000e+00	-3.03230000e-01	1.000	 35	 0	
 358	-1.04702000e+01	-8.07593000e+00	-2.99270000e-01	1.000	 35	 0	
 359	-9.44702000e+00	-8.04738000e+00	-3.17220000e-01	1.000	 35	 0	
 360	-8.44315000e+00	-8.07699000e+00	-3.19850000e-01	1.000	 35	 0	
 361	-7.38711000e+00	-8.03065000e+00	-3.20070000e-01	1.000	 35	 0	
 362	-6.31508000e+00	-8.01035000e+00	-3.10720000e-01	1.000	 35	 0	
 363	-5.31489000e+00	-7.98952000e+00	-3.30040000e-01	1.000	 35	 0	
 364	-4.32222000e+00	-7.98378000e+00	-3.29370000e-01	1.000	 35	 0	
 365	-3.29373000e+00	-8.01829000e+00	-3.19380000e-01	1.000	 35	 0	
 366	-2.21804000e+00	-8.00803000e+00	-3.16840000e-01	1.000	 35	 0	
 367	-1.16659000e+00	-8.06701000e+00	-3.16680000e-01	1.000	 35	 0	
 368	-1.80840000e-01	-7.04953000e+00	-3.25140000e-01	1.000	 35	 0	
 369	 9.14040000e-01	-6.99822000e+00	-3.17090000e-01	1.000	 35	 0	
 370	 1.87138000e+00	-7.01081000e+00	-3.09690000e-01	1.000	 35	 0	
 371	 2.89018000e+00	-7.02719000e+00	-3.29330000e-01	1.000	 35	 0	
 372	 3.93699000e+00	-7.02801000e+00	-3.11190000e-01	1.000	 35	 0	
 373	 4.97425000e+00	-6.93303000e+00	-3.20060000e-01	1.000	 35	 0	
 374	 6.05030000e+00	-7.00623000e+00	-3.42360000e-01	1.000	 35	 0	
 375	 7.05461000e+00	-7.01678000e+00	-3.38720000e-01	1.000	 35	 0	
 376	 8.12710000e+00	-7.08408000e+00	-3.08430000e-01	1.000	 35	 0	
 377	 9.27196000e+00	-7.02480000e+00	-3.17700000e-01	1.000	 35	 0	
 378	 1.02423000e+01	-6.95954000e+00	-3.26420000e-01	1.000	 35	 0	
 379	 1.12823000e+01	-6.99640000e+00	-3.14740000e-01	1.000	 35	 0	
 380	-1.15048000e+01	-6.99100000e+00	-3.17930000e-01	1.000	 35	 0	
 381	-1.04935000e+01	-7.00462000e+00	-3.21350000e-01	1.000	 35	 0	
 382	-9.47156000e+00	-7.03284000e+00	-3.00160000e-01	1.000	 35	 0	
 383	-8.44371000e+00	-7.04608000e+00	-3.43940000e-01	1.000	 35	 0	
 384	-7.41574000e+00	-7.01900000e+00	-3.08650000e-01	1.000	 35	 0	
 385	-6.36829000e+00	-7.00558000e+00	-3.12580000e-01	1.000	 35	 0	
 386	-5.35108000e+00	-6.93003000e+00	-3.22410000e-01	1.000	 35	 0	
 387	-4.31713000e+00	-6.96732000e+00	-3.13040000e-01	1.000	 35	 0	
 388	-3.29006000e+00	-7.01535000e+00	-3.08170000e-01	1.000	 35	 0	
 389	-2.23921000e+00	-6.99672000e+00	-2.97870000e-01	1.000	 35	 0	
 390	-1.20592000e+00	-6.98754000e+00	-3.11090000e-01	1.000	 35	 0	
 391	-2.10100000e-01	-5.96417000e+00	-3.04740000e-01	1.000	 35	 0	
 392	 8.61360000e-01	-5.91383000e+00	-3.11350000e-01	1.000	 35	 0	
 393	 1.88643000e+00	-5.96527000e+00	-3.20690000e-01	1.000	 35	 0	
 394	 2.98512000e+00	-5.97796000e+00	-3.22550000e-01	1.000	 35	 0	
 395	 3.93799000e+00	-6.00436000e+00	-3.29560000e-01	1.000	 35	 0	
 396	 5.01256000e+00	-5.95929000e+00	-2.92430000e-01	1.000	 35	 0	
 397	 6.01815000e+00	-5.97523000e+00	-3.27050000e-01	1.000	 35	 0	
 398	 7.07842000e+00	-6.01981000e+00	-3.08190000e-01	1.000	 35	 0	
 399	 8.14909000e+00	-6.02206000e+00	-3.22500000e-01	1.000	 35	 0	
 400	 9.17006000e+00	-6.00431000e+00	-3.26520000e-01	1.000	 35	 0	
 401	 1.02285000e+01	-5.96223000e+00	-2.90610000e-01	1.000	 35	 0	
 402	 1.12594000e+01	-5.98462000e+00	-3.37120000e-01	1.000	 35	 0	
 403	-1.14553000e+01	-6.03479000e+00	-3.33350000e-01	1.000	 35	 0	
 404	-1.04189000e+01	-5.99783000e+00	-3.33500000e-01	1.000	 35	 0	
 405	-9.40598000e+00	-5.96186000e+00	-3.31080000e-01	1.000	 35	 0	
 406	-8.38514000e+00	-6.01336000e+00	-3.34470000e-01	1.000	 35	 0	
 407	-7.44276000e+00	-5.99099000e+00	-2.95110000e-01	1.000	 35	 0	
 408	-6.37391000e+00	-6.00510000e+00	-3.40580000e-01	1.000	 35	 0	
 409	-5.34339000e+00	-5.90474000e+00	-3.20190000e-01	1.000	 35	 0	
 410	-4.30460000e+00	-5.97881000e+00	-3.23990000e-01	1.000	 35	 0	
 411	-3.24481000e+00	-5.99978000e+00	-3.05560000e-01	1.000	 35	 0	
 412	-2.19759000e+00	-6.00190000e+00	-3.19480000e-01	1.000	 35	 0	
 413	-1.19494000e+00	-5.94454000e+00	-3.05850000e-01	1.000	 35	 0	
 414	-1.63290000e-01	-4.89709000e+00	-3.35260000e-01	1.000	 35	 0	
 415	 8.24100000e-01	-4.92019000e+00	-3.37110000e-01	1.000	 35	 0	
 416	 1.86713000e+00	-4.99187000e+00	-3.20910000e-01	1.000	 35	 0	
 417	 2.87641000e+00	-4.97601000e+00	-3.24180000e-01	1.000	 35	 0	
 418	 3.93359000e+00	-4.97508000e+00	-2.96050000e-01	1.000	 35	 0	
 419	 5.01029000e+00	-4.88599000e+00	-2.89500000e-01	1.000	 35	 0	
 420	 6.01370000e+00	-4.95341000e+00	-3.09460000e-01	1.000	 35	 0	
 421	 7.07489000e+00	-5.00222000e+00	-3.15560000e-01	1.000	 35	 0	
 422	 8.12546000e+00	-4.99134000e+00	-3.08140000e-01	1.000	 35	 0	
 423	 9.14003000e+00	-4.98967000e+00	-3.41050000e-01	1.000	 35	 0	
 424	 1.01409000e+01	-4.95565000e+00	-3.21170000e-01	1.000	 35	 0	
 425	 1.12263000e+01	-5.03317000e+00	-2.91520000e-01	1.000	 35	 0	
 426	-1.15440000e+01	-5.00999000e+00	-3.13430000e-01	1.000	 35	 0	
 427	-1.05325000e+01	-4.93653000e+00	-3.08780000e-01	1.000	 35	 0	
 428	-9.48431000e+00	-4.91203000e+00	-3.24820000e-01	1.000	 35	 0	
 429	-8.46388000e+00	-4.93040000e+00	-3.14460000e-01	1.000	 35	 0	
 430	-7.41389000e+00	-4.97071000e+00	-2.78970000e-01	1.000	 35	 0	
 431	-6.40293000e+00	-4.94246000e+00	-3.33830000e-01	1.000	 35	 0	
 432	-5.37393000e+00	-4.93253000e+00	-3.14840000e-01	1.000	 35	 0	
 433	-4.34379000e+00	-4.96809000e+00	-3.57570000e-01	1.000	 35	 0	
 434	-3.30769000e+00	-5.03428000e+00	-3.42190000e-01	1.000	 35	 0	
 435	-2.24728000e+00	-4.97152000e+00	-3.05960000e-01	1.000	 35	 0	
 436	-1.15894000e+00	-4.90920000e+00	-3.27970000e-01	1.000	 35	 0	
 437	-1.95530000e-01	-3.88879000e+00	-3.15220000e-01	1.000	 35	 0	
 438	 8.28050000e-01	-3.93972000e+00	-3.22950000e-01	1.000	 35	 0	
 439	 1.90436000e+00	-3.91742000e+00	-3.03220000e-01	1.000	 35	 0	
 440	 2.93169000e+00	-3.87599000e+00	-3.22660000e-01	1.000	 35	 0	
 441	 3.92331000e+00	-3.85415000e+00	-3.04450000e-01	1.000	 35	 0	
 442	 4.97274000e+00	-3.91261000e+00	-3.32810000e-01	1.000	 35	 0	
 443	 6.07471000e+00	-3.92914000e+00	-3.27280000e-01	1.000	 35	 0	
 444	 7.11888000e+00	-3.89321000e+00	-3.16930000e-01	1.000	 35	 0	